[Molden Format]
[Molpro variables]
_NUMVAR=  949.0000000000000
_AVOGAD= 0.6022136736000000E+24
_BOLTZ= 0.1380658000000000E-22
_CLIGHT=  29979245800.00000
_EV= 0.3674932379085202E-01
_ENULL= 0.8854187817000000E-11
_KJOULE= 0.3808798324128737E-03
_KJOULE/MOL= 0.3808798324128737E-03
_CM= 0.4556335267302901E-05
_CM-1= 0.4556335267302901E-05
_DEB2SI= 0.3335641000000000E-29
_AMU2AU=  1822.888390000000
_KCAL= 0.1593601117815568E-02
_KCAL/MOL= 0.1593601117815568E-02
_KELVIN= 0.3166811411060229E-05
_JOULE= 0.4359748200000000E-17
_HERTZ= 0.1519829846004524E-15
_HZ= 0.1519829846004524E-15
_JPCAL=  4.184000000000000
_PLANCK= 0.6626075540000000E-33
_TOA= 0.5291772109200000
_TOANG= 0.5291772109200000
_TORAD= 0.1745329251994330E-01
_TOCM=  219474.6306700000
_TODEBYE=  2.541580000000000
_TOE= 0.4803242000000000E-09
_TOEV=  27.21138505000000
_TOHERTZ=  6579683920729000.
_TOHZ=  6579683920729000.
_TOK=  315775.0400000000
_TOKCAL=  627.5096000000000
_TOKELVIN=  315775.0400000000
_TOKJ=  2625.500000000000
_TOKJOULE=  2625.500000000000
_TOKG= 0.1660565586000000E-26
_ANG=  1.889726124565062
_ANGSTROM=  1.889726124565062
_RPAREF=  0.000000000000000
_RPADISS=  0.000000000000000
_IGNORE_UNDEF=  2.000000000000000
_STRICTCHECK=  0.000000000000000
!SEWARD=  0.000000000000000
!MULTI=  0.000000000000000
_SEW_ONEEL=  0.000000000000000
_CPPDONE=FALSE
_DKROLL_DONE=  0.000000000000000
_FNUC_DONE=  0.000000000000000
_FOCKDONE=  0.000000000000000
_GRADONE=FALSE
_HESSDONE=FALSE
_INTDONE=TRUE
_SCFDONE=TRUE
_MODUL_BLOCK=FALSE
_MODUL_CUDA=FALSE
_MODUL_SLATER=FALSE
_MODUL_MRCC=FALSE
_MODUL_NBO6=FALSE
_MODUL_NECI=FALSE
_MODUL_AIMS=FALSE
_MODUL_GECCO=FALSE
_ISWINDOWS=FALSE
_MRCC_EXEC=
_FITC_AO_SAVED=FALSE
_FITC_MO_SAVED=FALSE
_SHARED_FS=TRUE
_LSTYP=SEWARD
_INTYP=INTS
_GEOMTYP=ZMAT
_GRADTYP=ALASKA
_DIRECT=FALSE
_DKHO= -1.000000000000000
_FNUC=  0.000000000000000
_SYNCM=  0.000000000000000
_BASIS=USERDEF
_ZORIENT=  1.000000000000000
_NELEC=  18.00000000000000
!SPIN=  0.000000000000000
_QSDSTEP=  0.000000000000000
_QSDIRC=  0.000000000000000
_PROGRAM=MRCI
_CPUSTEP= 0.1999999999999602E-01
_SYSSTEP=  0.000000000000000
_WALLSTEP= 0.3000000000000000E-01
!DFMP2=  0.000000000000000
!DFSCF=  0.000000000000000
!SCSGRD=  0.000000000000000
_CPUTOT=  92.66000000000000
_DFTEXFAC=  1.000000000000000
_DMX=  0.000000000000000
_DMY=  0.000000000000000
_DMZ=  0.000000000000000
_DMX_SCF=  0.000000000000000
_DMY_SCF=  0.000000000000000
_DMZ_SCF=  0.000000000000000
_HOMO=  1.600000000000000
_EHOMO=-0.6695570774908269
_LUMO=  3.500000000000000
_ELUMO= 0.6586269478365910E-01
_ENERGD= -198.8316618907656
_ENERGD0= -198.8316618907656
_ENERGD1= -198.8316618907656
_ENERGD2= -198.8316618907656
_ENERGP= -198.8316618907656
_ENERGP0= -198.8316618907656
_ENERGP1= -198.8316618907656
_ENERGP2= -198.8316618907656
_ENERGR= -198.8316618907655
_ENERGY= -198.8316618907656
_ENERGY_METHOD=MRCI
_ENERGY_BASIS=USERDEF
_GEOMETRY_METHOD=
_GEOMETRY_BASIS=
_ENUC=  30.35863310752888
_GRADEXFAC=  9999.000000000000
_GRADMETHOD=FALSE
_NMRMETHOD=  0.000000000000000
_NMRMAGNET=  0.000000000000000
!GRID_FREEZE= -1.000000000000000
_ITERATIONS=  0.000000000000000
_LASTNELEC=  2.000000000000000
_LASTSPIN=  0.000000000000000
_LASTSYM=  1.000000000000000
_MPP_PROG=  0.000000000000000
_MSNSTATES=  0.000000000000000
_RS2PHASE=  0.000000000000000
_IPROC_MPP=  0.000000000000000
_IPROC_MPPX=  0.000000000000000
_NPROC_MPP=  1.000000000000000
_NPROC_MPPX=  1.000000000000000
_NPROC_SMP=  1.000000000000000
_NUMSTEP=  0.000000000000000
_ORBITAL=  2140.200000000000
_PI=  3.141592653589793
!MCACT=  1.000000000000000
!MCCLOSED=  2.000000000000000
!MCFREEZE=  0.000000000000000
!MCMS2=  0.000000000000000
!MCNEL=  2.000000000000000
!MCNSTSYM=  1.000000000000000
!MCSTATE=  1.000000000000000
!MCSYM=  1.000000000000000
!MCWEIGHT=  1.000000000000000
_SEIG_MIN= 0.7038218461067345E-02
_SEWPROP=TRUE
_STATUS=  1.000000000000000
_SYSTOT= 0.6000000000000000E-01
_VERSION=  2020001.000000000
_WALLTOT=  92.84999999999999
_DATE=23-May-23
_LASTORB=MCSCF
_OUTPUT=/home/heinz/PhD/calculations/wf_generation/CAS22/f2/f2.out
_PGROUP=D2h
_TIME=16:09:40
_LIBMOL=/share/apps/molpro2020/lib/
_VIGRDC=  0.000000000000000
!VIBCNT=  0.000000000000000
!RGHFCNT=  0.000000000000000
!SURFREC=  0.000000000000000
!XSURFREC=  0.000000000000000
!XPOLYREC=  0.000000000000000
!ROTREC=  0.000000000000000
!POLYREC=  0.000000000000000
!DIPREC=  0.000000000000000
!DIP4DREC=  0.000000000000000
!DIPROT=  0.000000000000000
!DIP4DROT=  0.000000000000000
!PTREC=  0.000000000000000
!PT4DREC=  0.000000000000000
!VSCFREC=  0.000000000000000
!VCIREC=  0.000000000000000
!PVCIREC=  0.000000000000000
!VMP2REC=  0.000000000000000
!VMCSCFREC=  0.000000000000000
!VMRCIREC=  0.000000000000000
!VIBSTATEREC=  0.000000000000000
!VIBSTATECNT=  0.000000000000000
!VIBINFO=  0.000000000000000
!GAREC=  0.000000000000000
!SCFORB=  21002.00000000000
!MCORB=  21402.00000000000
!SCORE=  0.000000000000000
!NEWMOL= -1.000000000000000
!NEWSYM= -1.000000000000000
_SLFILES=slscratch
_NGSSTO=  9.000000000000000
_SIN=SIN
_COS=COS
_TAN=TAN
_ACOS=ACOS
_ASIN=ASIN
_ATAN=ATAN
_COSH=COSH
_SINH=SINH
_TANH=TANH
_ABS=ABS
_MOD=MOD
_ERF=ERF
_REFC=REFC
_ERFC=ERFC
_HYPOT=HYPOT
_J0=J0
_J1=J1
_JN=JN
_GAMMA=GAMMA
_LGAMMA=LGAMMA
_Y0=Y0
_Y1=Y1
_YN=YN
_EXP=EXP
_LOG=LOG
_LOG10=LOG10
_SQRT=SQRT
_INT=INT
_NINT=NINT
_MAX=MAX
_MIN=MIN
_COSMO=  0.000000000000000
_COSMOIT=  0.000000000000000
_COSMOES=  0.000000000000000
_COSMOEDS=  0.000000000000000
_COSMOEC=  0.000000000000000
_COSMOEDCORR=  0.000000000000000
_FEPSI=  1.000000000000000
_SL_IsMM=  0.000000000000000
_SL_NSYM=  8.000000000000000
_SL_System_BitSw=  0.000000000000000
_SL_Unique_atoms=  0.000000000000000
_SL_GRAD=  0.000000000000000
_SL_MAXUPD_Hess=  5.000000000000000
_SL_N_PRINT_COD=  5.000000000000000
_SL_PRINT_CODES=  0.000000000000000
_SL_BasType=  0.000000000000000
_SL_Energy_Pred=  0.000000000000000
_SL_New_Coords=  0.000000000000000
_SL_Total_Nuclea=  0.000000000000000
_SL_Highest_Mltp=  0.000000000000000
_SL_Ref_Geom=  0.000000000000000
_SL_Symmetry_ope=  1.000000000000000
_SL_agrad=  0.000000000000000
_SL_GrdMax=  0.000000000000000
_SL_GrdNorm=  0.000000000000000
_SL_GrdRMS=  0.000000000000000
_SL_Hss_Q=  0.000000000000000
_SL_Hss_X=  0.000000000000000
_SL_BMxOld=  0.000000000000000
_SL_KtB=  0.000000000000000
_SL_TROld=  0.000000000000000
_SL_No_of_Intern=  0.000000000000000
_SL_Hess=  0.000000000000000
_SL_K=  0.000000000000000
!LATTICE= -1.000000000000000
!NEWLATTICE=  0.000000000000000
!LATGRAD_VAR=FALSE
!SEW_LATTICE=  1.000000000000000
!AIC_ONEEL=  0.000000000000000
!LOCAL=  0.000000000000000
!SAVEDOM= -1.000000000000000
!RESTDOM= -1.000000000000000
!SAVEDOM_HF= -1.000000000000000
!RESTDOM_HF= -1.000000000000000
!HESSREC=  0.000000000000000
!FREQREC=  0.000000000000000
!NMODREC=  0.000000000000000
!GTASKS=  0.000000000000000
!HTASKS=  0.000000000000000
!SAVEDOM_EOM= -1.000000000000000
!RESTDOM_EOM= -1.000000000000000
!GRADSTATE= -1.000000000000000
!THRCHG= 0.1000000000000000
!DEBUG= -1.000000000000000
!CFIT_CPHF=  0.000000000000000
!RDOMAUX_CPHF=  3.000000000000000
!THRAO_CPHF= 0.1000000000000000E-09
!THRMO_CPHF= 0.1000000000000000E-08
!THROV_CPHF= 0.1000000000000000E-11
!THRSW_CPHF= 0.1000000000000000E-09
!THRPROD_CPHF= 0.1000000000000000E-08
!THRAOPR_CPHF= 0.1000000000000000E-11
!CFIT_SCFGRD=  0.000000000000000
!RDOMAUX_SCFGRD=  7.000000000000000
!THRAO_SCFGRD= 0.1000000000000000E-09
!THRMO_SCFGRD= 0.1000000000000000E-08
!THROV_SCFGRD= 0.1000000000000000E-11
!THRSW_SCFGRD= 0.1000000000000000E-09
!THRPROD_SCFGRD= 0.1000000000000000E-08
!THRAOPR_SCFGRD= 0.1000000000000000E-11
!LOCFIT_SCF=  0.000000000000000
!LOCFIT_MP2= -1.000000000000000
_RIDOM=  0.000000000000000
!CC2_METHOD=  0.000000000000000
_BASIS2006=FALSE
_SVDDEL= -1.000000000000000
_SVDDELA= -1.000000000000000
_SVDDELP= -1.000000000000000
_SVDDELF= -1.000000000000000
_SVDDELS= -1.000000000000000
_SVDDEL_ABS= -1.000000000000000
_SVDDELA_ABS= -1.000000000000000
_SVDDELP_ABS= -1.000000000000000
_SVDDELF_ABS= -1.000000000000000
_SVDDELS_ABS= -1.000000000000000
_MAXBASIS=  0.000000000000000
!OPT_CONICAL=  0.000000000000000
!CLEARSP_JGRID=  0.000000000000000
_GRDHYBR=  0.000000000000000
_STATEGRAD=  1.000000000000000
_4EXT_NDISKS=  1.000000000000000
_C0=  1.000000000000000
_C0R=  1.000000000000000
!EMBEDFLAG=  1.000000000000000
!EMBED=FALSE
!EMBED_F12=FALSE
!EMBEDNUC=  0.000000000000000
_EMBEDENERGY=  0.000000000000000
!EMBED_DFC=FALSE
!NUM_VOIDS=  0.000000000000000
_IBODY=  0.000000000000000
_EMBE_CORR=  0.000000000000000
!EMBED_PROJ=FALSE
!EMB_PROJ_ZMU=  1000000.000000000
!CORRECTION_HF=  0.000000000000000
!EMBED_AORB=  0.000000000000000
!EMBED_NACORR=  0.000000000000000
!EMBED_MP2=FALSE
!EMBED_TRUNC_PERTURBATION=FALSE
!EMBED_FROZEN=  0.000000000000000
!EMBED_ACTIVE=  0.000000000000000
_CHANGE_BASIS=FALSE
_RESTORE_BASIS=FALSE
_FIX_EMBED_GUESS=FALSE
_EMBED_SCF=FALSE
_HUZINAGA_T=FALSE
_HUZINAGA_F=FALSE
_HUZINAGA=FALSE
_HUZINAGA_CORRECT=FALSE
!FASTLATGRAD=  1.000000000000000
!FASTVLAMBDA= -1.000000000000000
!IFORCE= -1.000000000000000
!USESYM= -1.000000000000000
_SINDEX=  0.000000000000000
_AVDOM_OSV=  0.000000000000000
_AVDOM_PNO=  0.000000000000000
_AVDOM_PAO=  0.000000000000000
_AVDOM_LMO=  0.000000000000000
_CC2OSV_FLAG=  0.000000000000000
_EOMCCSD_CONV=FALSE
_TMADC2_FLAG=FALSE
_PROPADC2_FLAG=FALSE
_LEN_VirQ=  0.000000000000000
_GRDCC2LR_FLAG=FALSE
_GRDADC2_FLAG=FALSE
_DMX_CC= -0.000000000000000
_DMY_CC= -0.000000000000000
_DMZ_CC= -0.000000000000000
_DMX_NUC=  0.000000000000000
_DMY_NUC=  0.000000000000000
_DMZ_NUC=  0.000000000000000
_RO_VGLOBAL=  0.000000000000000
_OPT=FALSE
_FREQ=FALSE
_HESS=FALSE
_CMRCC_callName=EMPTY
_CMRCC_callCount=  0.000000000000000
_GECCO_CIROOT=  1.000000000000000
_SYM_CATION=  6.000000000000000
GX1=  0.000000000000000
GY1=  0.000000000000000
GZ1=-0.7059499999999996
GX2=  0.000000000000000
GY2=  0.000000000000000
GZ2= 0.7059499999999996
[Atoms] Angs
F     1    9         0.0000000000        0.0000000000       -0.7059500000
F     2    9         0.0000000000        0.0000000000        0.7059500000
[GTO]
   1 0
 s   14  1.00
  0.2096120581D+06  0.3426509057D-04
  0.4961635491D+05  0.1564329551D-03
  0.1385935801D+05  0.6952577226D-03
  0.4489859260D+04  0.2494763609D-02
  0.1657888769D+04  0.7581646253D-02
  0.6857610123D+03  0.1980157107D-01
  0.3122817624D+03  0.4494874434D-01
  0.1538645513D+03  0.8955078147D-01
  0.8061397589D+02  0.1552997260D+00
  0.4413911408D+02  0.2299234061D+00
  0.2482218906D+02  0.2710602954D+00
  0.1409033874D+02  0.2222125104D+00
  0.7934679097D+01  0.9141983365D-01
  0.4356378149D+01  0.9819476015D-02
 s   14  1.00
  0.1049880627D+06  0.3426509057D-04
  0.2485126584D+05  0.1564329551D-03
  0.6941714902D+04  0.6952577226D-03
  0.2248828763D+04  0.2494763609D-02
  0.8303841467D+03  0.7581646253D-02
  0.3434760423D+03  0.1980157107D-01
  0.1564120764D+03  0.4494874434D-01
  0.7706589642D+02  0.8955078147D-01
  0.4037699562D+02  0.1552997260D+00
  0.2210788881D+02  0.2299234061D+00
  0.1243265089D+02  0.2710602954D+00
  0.7057405855D+01  0.2222125104D+00
  0.3974230270D+01  0.9141983365D-01
  0.2181972288D+01  0.9819476015D-02
 s   14  1.00
  0.9891042616D+04 -0.4241946440D-04
  0.2513466284D+04 -0.1723409735D-03
  0.7314440922D+03 -0.7455011072D-03
  0.2409641933D+03 -0.2608994541D-02
  0.8883281243D+02 -0.7720135792D-02
  0.3622680698D+02 -0.1853149968D-01
  0.1615506347D+02 -0.3310999748D-01
  0.7787453521D+01 -0.3024593372D-01
  0.4011221785D+01  0.4358705846D-01
  0.2182420904D+01  0.2269525618D+00
  0.1239844447D+01  0.3969608512D+00
  0.7270243580D+00  0.3188487215D+00
  0.4349807274D+00  0.9269258491D-01
  0.2624923089D+00  0.5737649860D-02
 s   14  1.00
  0.3546137021D+04 -0.4241946440D-04
  0.9011280392D+03 -0.1723409735D-03
  0.2622373671D+03 -0.7455011072D-03
  0.8639049285D+02 -0.2608994541D-02
  0.3184834370D+02 -0.7720135792D-02
  0.1298803638D+02 -0.1853149968D-01
  0.5791914044D+01 -0.3310999748D-01
  0.2791958169D+01 -0.3024593372D-01
  0.1438103406D+01  0.4358705846D-01
  0.7824416356D+00  0.2269525618D+00
  0.4445090840D+00  0.3969608512D+00
  0.2606528039D+00  0.3188487215D+00
  0.1559493089D+00  0.9269258491D-01
  0.9410875380D-01  0.5737649860D-02
 s   14  1.00
  0.5159593561D+03 -0.4241946440D-04
  0.1311132199D+03 -0.1723409735D-03
  0.3815527215D+02 -0.7455011072D-03
  0.1256972948D+02 -0.2608994541D-02
  0.4633901852D+01 -0.7720135792D-02
  0.1889746180D+01 -0.1853149968D-01
  0.8427176455D+00 -0.3310999748D-01
  0.4062270946D+00 -0.3024593372D-01
  0.2092425935D+00  0.4358705846D-01
  0.1138444680D+00  0.2269525618D+00
  0.6467562291D-01  0.3969608512D+00
  0.3792471979D-01  0.3188487215D+00
  0.2269046699D-01  0.9269258491D-01
  0.1369272866D-01  0.5737649860D-02
 p   14  1.00
  0.3544932926D+04  0.1803438178D-04
  0.1195072342D+04  0.9238401414D-04
  0.4466221873D+03  0.4762617136D-03
  0.1832590259D+03  0.2008047986D-02
  0.8176896290D+02  0.7223688104D-02
  0.3929422222D+02  0.2213037824D-01
  0.2014211408D+02  0.5753160842D-01
  0.1090778599D+02  0.1249015978D+00
  0.6180767729D+01  0.2189807854D+00
  0.3629456131D+01  0.2920125014D+00
  0.2187525117D+01  0.2663851227D+00
  0.1340281335D+01  0.1383614464D+00
  0.8267788722D+00  0.2943888690D-01
  0.5085718356D+00  0.1432185321D-02
 p   14  1.00
  0.9098126869D+03  0.1803438178D-04
  0.3067172218D+03  0.9238401414D-04
  0.1146262964D+03  0.4762617136D-03
  0.4703372115D+02  0.2008047986D-02
  0.2098613469D+02  0.7223688104D-02
  0.1008492478D+02  0.2213037824D-01
  0.5169505691D+01  0.5753160842D-01
  0.2799500663D+01  0.1249015978D+00
  0.1586303891D+01  0.2189807854D+00
  0.9315057022D+00  0.2920125014D+00
  0.5614318088D+00  0.2663851227D+00
  0.3439853412D+00  0.1383614464D+00
  0.2121941157D+00  0.2943888690D-01
  0.1305257724D+00  0.1432185321D-02
 p   14  1.00
  0.2644476347D+03  0.1803438178D-04
  0.8915092633D+02  0.9238401414D-04
  0.3331746566D+02  0.4762617136D-03
  0.1367089785D+02  0.2008047986D-02
  0.6099864026D+01  0.7223688104D-02
  0.2931300631D+01  0.2213037824D-01
  0.1502576928D+01  0.5753160842D-01
  0.8137074139D+00  0.1249015978D+00
  0.4610776679D+00  0.2189807854D+00
  0.2707529618D+00  0.2920125014D+00
  0.1631866823D+00  0.2663851227D+00
  0.9998333851D-01  0.1383614464D+00
  0.6167668662D-01  0.2943888690D-01
  0.3793883320D-01  0.1432185321D-02
 d   14  1.00
  0.1768641393D+03  0.9909062843D-05
  0.6989532814D+02  0.6256499824D-04
  0.3014086061D+02  0.3760413908D-03
  0.1406381534D+02  0.1819090339D-02
  0.7040954505D+01  0.7308532126D-02
  0.3750435196D+01  0.2428343597D-01
  0.2107630172D+01  0.6622957677D-01
  0.1239112197D+01  0.1452836882D+00
  0.7557379109D+00  0.2469987680D+00
  0.4741513672D+00  0.3051656748D+00
  0.3034512259D+00  0.2455859025D+00
  0.1964390138D+00  0.1067281542D+00
  0.1275482261D+00  0.1808664302D-01
  0.8237013904D-01  0.6738224539D-03

   2 0
 s   14  1.00
  0.2096120581D+06  0.3426509057D-04
  0.4961635491D+05  0.1564329551D-03
  0.1385935801D+05  0.6952577226D-03
  0.4489859260D+04  0.2494763609D-02
  0.1657888769D+04  0.7581646253D-02
  0.6857610123D+03  0.1980157107D-01
  0.3122817624D+03  0.4494874434D-01
  0.1538645513D+03  0.8955078147D-01
  0.8061397589D+02  0.1552997260D+00
  0.4413911408D+02  0.2299234061D+00
  0.2482218906D+02  0.2710602954D+00
  0.1409033874D+02  0.2222125104D+00
  0.7934679097D+01  0.9141983365D-01
  0.4356378149D+01  0.9819476015D-02
 s   14  1.00
  0.1049880627D+06  0.3426509057D-04
  0.2485126584D+05  0.1564329551D-03
  0.6941714902D+04  0.6952577226D-03
  0.2248828763D+04  0.2494763609D-02
  0.8303841467D+03  0.7581646253D-02
  0.3434760423D+03  0.1980157107D-01
  0.1564120764D+03  0.4494874434D-01
  0.7706589642D+02  0.8955078147D-01
  0.4037699562D+02  0.1552997260D+00
  0.2210788881D+02  0.2299234061D+00
  0.1243265089D+02  0.2710602954D+00
  0.7057405855D+01  0.2222125104D+00
  0.3974230270D+01  0.9141983365D-01
  0.2181972288D+01  0.9819476015D-02
 s   14  1.00
  0.9891042616D+04 -0.4241946440D-04
  0.2513466284D+04 -0.1723409735D-03
  0.7314440922D+03 -0.7455011072D-03
  0.2409641933D+03 -0.2608994541D-02
  0.8883281243D+02 -0.7720135792D-02
  0.3622680698D+02 -0.1853149968D-01
  0.1615506347D+02 -0.3310999748D-01
  0.7787453521D+01 -0.3024593372D-01
  0.4011221785D+01  0.4358705846D-01
  0.2182420904D+01  0.2269525618D+00
  0.1239844447D+01  0.3969608512D+00
  0.7270243580D+00  0.3188487215D+00
  0.4349807274D+00  0.9269258491D-01
  0.2624923089D+00  0.5737649860D-02
 s   14  1.00
  0.3546137021D+04 -0.4241946440D-04
  0.9011280392D+03 -0.1723409735D-03
  0.2622373671D+03 -0.7455011072D-03
  0.8639049285D+02 -0.2608994541D-02
  0.3184834370D+02 -0.7720135792D-02
  0.1298803638D+02 -0.1853149968D-01
  0.5791914044D+01 -0.3310999748D-01
  0.2791958169D+01 -0.3024593372D-01
  0.1438103406D+01  0.4358705846D-01
  0.7824416356D+00  0.2269525618D+00
  0.4445090840D+00  0.3969608512D+00
  0.2606528039D+00  0.3188487215D+00
  0.1559493089D+00  0.9269258491D-01
  0.9410875380D-01  0.5737649860D-02
 s   14  1.00
  0.5159593561D+03 -0.4241946440D-04
  0.1311132199D+03 -0.1723409735D-03
  0.3815527215D+02 -0.7455011072D-03
  0.1256972948D+02 -0.2608994541D-02
  0.4633901852D+01 -0.7720135792D-02
  0.1889746180D+01 -0.1853149968D-01
  0.8427176455D+00 -0.3310999748D-01
  0.4062270946D+00 -0.3024593372D-01
  0.2092425935D+00  0.4358705846D-01
  0.1138444680D+00  0.2269525618D+00
  0.6467562291D-01  0.3969608512D+00
  0.3792471979D-01  0.3188487215D+00
  0.2269046699D-01  0.9269258491D-01
  0.1369272866D-01  0.5737649860D-02
 p   14  1.00
  0.3544932926D+04  0.1803438178D-04
  0.1195072342D+04  0.9238401414D-04
  0.4466221873D+03  0.4762617136D-03
  0.1832590259D+03  0.2008047986D-02
  0.8176896290D+02  0.7223688104D-02
  0.3929422222D+02  0.2213037824D-01
  0.2014211408D+02  0.5753160842D-01
  0.1090778599D+02  0.1249015978D+00
  0.6180767729D+01  0.2189807854D+00
  0.3629456131D+01  0.2920125014D+00
  0.2187525117D+01  0.2663851227D+00
  0.1340281335D+01  0.1383614464D+00
  0.8267788722D+00  0.2943888690D-01
  0.5085718356D+00  0.1432185321D-02
 p   14  1.00
  0.9098126869D+03  0.1803438178D-04
  0.3067172218D+03  0.9238401414D-04
  0.1146262964D+03  0.4762617136D-03
  0.4703372115D+02  0.2008047986D-02
  0.2098613469D+02  0.7223688104D-02
  0.1008492478D+02  0.2213037824D-01
  0.5169505691D+01  0.5753160842D-01
  0.2799500663D+01  0.1249015978D+00
  0.1586303891D+01  0.2189807854D+00
  0.9315057022D+00  0.2920125014D+00
  0.5614318088D+00  0.2663851227D+00
  0.3439853412D+00  0.1383614464D+00
  0.2121941157D+00  0.2943888690D-01
  0.1305257724D+00  0.1432185321D-02
 p   14  1.00
  0.2644476347D+03  0.1803438178D-04
  0.8915092633D+02  0.9238401414D-04
  0.3331746566D+02  0.4762617136D-03
  0.1367089785D+02  0.2008047986D-02
  0.6099864026D+01  0.7223688104D-02
  0.2931300631D+01  0.2213037824D-01
  0.1502576928D+01  0.5753160842D-01
  0.8137074139D+00  0.1249015978D+00
  0.4610776679D+00  0.2189807854D+00
  0.2707529618D+00  0.2920125014D+00
  0.1631866823D+00  0.2663851227D+00
  0.9998333851D-01  0.1383614464D+00
  0.6167668662D-01  0.2943888690D-01
  0.3793883320D-01  0.1432185321D-02
 d   14  1.00
  0.1768641393D+03  0.9909062843D-05
  0.6989532814D+02  0.6256499824D-04
  0.3014086061D+02  0.3760413908D-03
  0.1406381534D+02  0.1819090339D-02
  0.7040954505D+01  0.7308532126D-02
  0.3750435196D+01  0.2428343597D-01
  0.2107630172D+01  0.6622957677D-01
  0.1239112197D+01  0.1452836882D+00
  0.7557379109D+00  0.2469987680D+00
  0.4741513672D+00  0.3051656748D+00
  0.3034512259D+00  0.2455859025D+00
  0.1964390138D+00  0.1067281542D+00
  0.1275482261D+00  0.1808664302D-01
  0.8237013904D-01  0.6738224539D-03


[MO]
 Sym=      1.1
 Ene=     -26.4071
 Spin= Alpha
 Occup=    2.000000
1 0.20738814083857
2 0.50760133973305
3 -0.006351281851764
4 0.004961736252562
5 -0.000891304159383
6 0.0
7 0.0
8 0.000766410773470
9 0.0
10 0.0
11 -0.000505846326322
12 0.0
13 0.0
14 -0.000087489354872
15 0.000015345913743
16 0.000015345913743
17 -0.000030691827485
18 0.0
19 0.0
20 0.0
21 0.20738814083857
22 0.50760133973305
23 -0.006351281851764
24 0.004961736252562
25 -0.000891304159383
26 0.0
27 0.0
28 -0.000766410773470
29 0.0
30 0.0
31 0.000505846326322
32 0.0
33 0.0
34 0.000087489354872
35 0.000015345913743
36 0.000015345913743
37 -0.000030691827485
38 0.0
39 0.0
40 0.0
 Sym=      1.5
 Ene=     -26.4069
 Spin= Alpha
 Occup=    2.000000
1 0.20636779380292
2 0.50922103361230
3 -0.009397494646935
4 0.011669923202604
5 0.003297657879336
6 0.0
7 0.0
8 0.001086842976195
9 0.0
10 0.0
11 -0.002772744470425
12 0.0
13 0.0
14 0.006792879217518
15 -0.000674455986356
16 -0.000674455986356
17 0.001348911972711
18 0.0
19 0.0
20 0.0
21 -0.20636779380292
22 -0.50922103361230
23 0.009397494646935
24 -0.011669923202604
25 -0.003297657879336
26 0.0
27 0.0
28 0.001086842976195
29 0.0
30 0.0
31 -0.002772744470425
32 0.0
33 0.0
34 0.006792879217518
35 0.000674455986356
36 0.000674455986356
37 -0.001348911972711
38 0.0
39 0.0
40 0.0
 Sym=      2.1
 Ene=      -1.7366
 Spin= Alpha
 Occup=    2.000000
1 0.016515251891166
2 -0.21853170335430
3 0.43220986972901
4 0.29996881603903
5 -0.006572651079496
6 0.0
7 0.0
8 -0.003610415571203
9 0.0
10 0.0
11 0.008130727118333
12 0.0
13 0.0
14 -0.017820507740579
15 -0.004940049735971
16 -0.004940049735971
17 0.009880099471942
18 0.0
19 0.0
20 0.0
21 0.016515251891166
22 -0.21853170335430
23 0.43220986972901
24 0.29996881603903
25 -0.006572651079496
26 0.0
27 0.0
28 0.003610415571203
29 0.0
30 0.0
31 -0.008130727118333
32 0.0
33 0.0
34 0.017820507740579
35 -0.004940049735971
36 -0.004940049735971
37 0.009880099471942
38 0.0
39 0.0
40 0.0
 Sym=      2.5
 Ene=      -1.4935
 Spin= Alpha
 Occup=    2.000000
1 0.014893041167609
2 -0.22511941002309
3 0.45536167460932
4 0.37300357763448
5 0.000944682175279
6 0.0
7 0.0
8 -0.019215593746670
9 0.0
10 0.0
11 -0.050672975339163
12 0.0
13 0.0
14 0.010061334047277
15 0.002770033483013
16 0.002770033483013
17 -0.005540066966025
18 0.0
19 0.0
20 0.0
21 -0.014893041167609
22 0.22511941002309
23 -0.45536167460932
24 -0.37300357763448
25 -0.000944682175279
26 0.0
27 0.0
28 -0.019215593746670
29 0.0
30 0.0
31 -0.050672975339163
32 0.0
33 0.0
34 0.010061334047277
35 -0.002770033483013
36 -0.002770033483013
37 0.005540066966025
38 0.0
39 0.0
40 0.0
 Sym=      3.1
 Ene=      -0.7425
 Spin= Alpha
 Occup=    1.863979
1 0.002144519111674
2 0.008612539725763
3 -0.029507906874652
4 -0.091054450937878
5 -0.014978872597429
6 0.0
7 0.0
8 0.15992065618442
9 0.0
10 0.0
11 0.42911130345221
12 0.0
13 0.0
14 0.12218251629582
15 -0.018308387652964
16 -0.018308387652964
17 0.036616775305928
18 0.0
19 0.0
20 0.0
21 0.002144519111674
22 0.008612539725763
23 -0.029507906874652
24 -0.091054450937878
25 -0.014978872597429
26 0.0
27 0.0
28 -0.15992065618442
29 0.0
30 0.0
31 -0.42911130345221
32 0.0
33 0.0
34 -0.12218251629582
35 -0.018308387652964
36 -0.018308387652964
37 0.036616775305928
38 0.0
39 0.0
40 0.0
 Sym=      3.5
 Ene=       0.1160
 Spin= Alpha
 Occup=    0.136021
1 0.002125023560801
2 -0.046183044568533
3 0.10133540947215
4 0.13739411856044
5 -0.003495000197295
6 0.0
7 0.0
8 0.21444947439523
9 0.0
10 0.0
11 0.59957694852288
12 0.0
13 0.0
14 0.029073971779023
15 0.007222080143774
16 0.007222080143774
17 -0.014444160287547
18 0.0
19 0.0
20 0.0
21 -0.002125023560801
22 0.046183044568533
23 -0.10133540947215
24 -0.13739411856044
25 0.003495000197295
26 0.0
27 0.0
28 0.21444947439523
29 0.0
30 0.0
31 0.59957694852288
32 0.0
33 0.0
34 0.029073971779023
35 -0.007222080143774
36 -0.007222080143774
37 0.014444160287547
38 0.0
39 0.0
40 0.0
 Sym=      1.3
 Ene=      -0.8038
 Spin= Alpha
 Occup=    2.000000
1 0.0
2 0.0
3 0.0
4 0.0
5 0.0
6 0.0
7 0.16617039193119
8 0.0
9 0.0
10 0.42886092791334
11 0.0
12 0.0
13 0.13555938454401
14 0.0
15 0.0
16 0.0
17 0.0
18 0.0
19 0.0
20 0.017738287925289
21 0.0
22 0.0
23 0.0
24 0.0
25 0.0
26 0.0
27 0.16617039193119
28 0.0
29 0.0
30 0.42886092791334
31 0.0
32 0.0
33 0.13555938454401
34 0.0
35 0.0
36 0.0
37 0.0
38 0.0
39 0.0
40 -0.017738287925289
 Sym=      1.2
 Ene=      -0.8038
 Spin= Alpha
 Occup=    2.000000
1 0.0
2 0.0
3 0.0
4 0.0
5 0.0
6 0.16617039193119
7 0.0
8 0.0
9 0.42886092791334
10 0.0
11 0.0
12 0.13555938454401
13 0.0
14 0.0
15 0.0
16 0.0
17 0.0
18 0.0
19 0.017738287925289
20 0.0
21 0.0
22 0.0
23 0.0
24 0.0
25 0.0
26 0.16617039193119
27 0.0
28 0.0
29 0.42886092791334
30 0.0
31 0.0
32 0.13555938454401
33 0.0
34 0.0
35 0.0
36 0.0
37 0.0
38 0.0
39 -0.017738287925289
40 0.0
 Sym=      1.7
 Ene=      -0.6598
 Spin= Alpha
 Occup=    2.000000
1 0.0
2 0.0
3 0.0
4 0.0
5 0.0
6 0.0
7 0.18641238981001
8 0.0
9 0.0
10 0.44194515994081
11 0.0
12 0.0
13 0.20803215516943
14 0.0
15 0.0
16 0.0
17 0.0
18 0.0
19 0.0
20 -0.002313745336040
21 0.0
22 0.0
23 0.0
24 0.0
25 0.0
26 0.0
27 -0.18641238981001
28 0.0
29 0.0
30 -0.44194515994081
31 0.0
32 0.0
33 -0.20803215516943
34 0.0
35 0.0
36 0.0
37 0.0
38 0.0
39 0.0
40 -0.002313745336040
 Sym=      1.6
 Ene=      -0.6598
 Spin= Alpha
 Occup=    2.000000
1 0.0
2 0.0
3 0.0
4 0.0
5 0.0
6 0.18641238981001
7 0.0
8 0.0
9 0.44194515994081
10 0.0
11 0.0
12 0.20803215516942
13 0.0
14 0.0
15 0.0
16 0.0
17 0.0
18 0.0
19 -0.002313745336040
20 0.0
21 0.0
22 0.0
23 0.0
24 0.0
25 0.0
26 -0.18641238981001
27 0.0
28 0.0
29 -0.44194515994081
30 0.0
31 0.0
32 -0.20803215516942
33 0.0
34 0.0
35 0.0
36 0.0
37 0.0
38 0.0
39 -0.002313745336040
40 0.0
 Sym=      4.1
 Ene=       0.1395
 Spin= Alpha
 Occup=   -0.000000
1 0.016911824166826
2 0.013248492483725
3 0.036353947624327
4 -0.48010468243117
5 0.69026124846640
6 0.0
7 0.0
8 0.011281111002441
9 0.0
10 0.0
11 0.056757106712861
12 0.0
13 0.0
14 -0.007955998955214
15 -0.002502661772457
16 -0.002502661772457
17 0.005005323544913
18 0.0
19 0.0
20 0.0
21 0.016911824166826
22 0.013248492483725
23 0.036353947624327
24 -0.48010468243117
25 0.69026124846640
26 0.0
27 0.0
28 -0.011281111002441
29 0.0
30 0.0
31 -0.056757106712861
32 0.0
33 0.0
34 0.007955998955214
35 -0.002502661772457
36 -0.002502661772457
37 0.005005323544913
38 0.0
39 0.0
40 0.0
 Sym=      4.5
 Ene=       0.1551
 Spin= Alpha
 Occup=   -0.000000
1 -0.011511629337794
2 0.062241071963850
3 0.099872885777388
4 -0.11979906765261
5 2.63862750802075
6 0.0
7 0.0
8 0.065745916146584
9 0.0
10 0.0
11 -0.25903406203907
12 0.0
13 0.0
14 0.76930340989505
15 -0.037865265898686
16 -0.037865265898686
17 0.075730531797372
18 0.0
19 0.0
20 0.0
21 0.011511629337794
22 -0.062241071963850
23 -0.099872885777388
24 0.11979906765261
25 -2.63862750802075
26 0.0
27 0.0
28 0.065745916146584
29 0.0
30 0.0
31 -0.25903406203907
32 0.0
33 0.0
34 0.76930340989505
35 0.037865265898686
36 0.037865265898686
37 -0.075730531797372
38 0.0
39 0.0
40 0.0
 Sym=      2.3
 Ene=       0.6092
 Spin= Alpha
 Occup=   -0.000000
1 0.0
2 0.0
3 0.0
4 0.0
5 0.0
6 0.0
7 0.029117713533886
8 0.0
9 0.0
10 -0.93738735995582
11 0.0
12 0.0
13 0.99061376183200
14 0.0
15 0.0
16 0.0
17 0.0
18 0.0
19 0.0
20 -0.053571663847072
21 0.0
22 0.0
23 0.0
24 0.0
25 0.0
26 0.0
27 0.029117713533886
28 0.0
29 0.0
30 -0.93738735995582
31 0.0
32 0.0
33 0.99061376183200
34 0.0
35 0.0
36 0.0
37 0.0
38 0.0
39 0.0
40 0.053571663847072
 Sym=      2.2
 Ene=       0.6092
 Spin= Alpha
 Occup=   -0.000000
1 0.0
2 0.0
3 0.0
4 0.0
5 0.0
6 0.029117713533886
7 0.0
8 0.0
9 -0.93738735995582
10 0.0
11 0.0
12 0.99061376183200
13 0.0
14 0.0
15 0.0
16 0.0
17 0.0
18 0.0
19 -0.053571663847073
20 0.0
21 0.0
22 0.0
23 0.0
24 0.0
25 0.0
26 0.029117713533886
27 0.0
28 0.0
29 -0.93738735995582
30 0.0
31 0.0
32 0.99061376183200
33 0.0
34 0.0
35 0.0
36 0.0
37 0.0
38 0.0
39 0.053571663847073
40 0.0
 Sym=      5.1
 Ene=       0.7702
 Spin= Alpha
 Occup=   -0.000000
1 0.008955331753452
2 -0.012960440280042
3 0.016080633920419
4 -0.24256433920544
5 0.015980796689559
6 0.0
7 0.0
8 0.084258368783441
9 0.0
10 0.0
11 -0.99192887762233
12 0.0
13 0.0
14 1.21814644975387
15 0.096428448993124
16 0.096428448993124
17 -0.19285689798625
18 0.0
19 0.0
20 0.0
21 0.008955331753452
22 -0.012960440280042
23 0.016080633920419
24 -0.24256433920544
25 0.015980796689559
26 0.0
27 0.0
28 -0.084258368783441
29 0.0
30 0.0
31 0.99192887762233
32 0.0
33 0.0
34 -1.21814644975387
35 0.096428448993124
36 0.096428448993124
37 -0.19285689798625
38 0.0
39 0.0
40 0.0
 Sym=      2.7
 Ene=       0.8096
 Spin= Alpha
 Occup=   -0.000000
1 0.0
2 0.0
3 0.0
4 0.0
5 0.0
6 0.0
7 0.070833395610379
8 0.0
9 0.0
10 -1.18542697593194
11 0.0
12 0.0
13 1.63783908927334
14 0.0
15 0.0
16 0.0
17 0.0
18 0.0
19 0.0
20 -0.042648711235207
21 0.0
22 0.0
23 0.0
24 0.0
25 0.0
26 0.0
27 -0.070833395610379
28 0.0
29 0.0
30 1.18542697593194
31 0.0
32 0.0
33 -1.63783908927334
34 0.0
35 0.0
36 0.0
37 0.0
38 0.0
39 0.0
40 -0.042648711235207
 Sym=      2.6
 Ene=       0.8096
 Spin= Alpha
 Occup=   -0.000000
1 0.0
2 0.0
3 0.0
4 0.0
5 0.0
6 0.070833395610372
7 0.0
8 0.0
9 -1.18542697593192
10 0.0
11 0.0
12 1.63783908927332
13 0.0
14 0.0
15 0.0
16 0.0
17 0.0
18 0.0
19 -0.042648711235215
20 0.0
21 0.0
22 0.0
23 0.0
24 0.0
25 0.0
26 -0.070833395610372
27 0.0
28 0.0
29 1.18542697593192
30 0.0
31 0.0
32 -1.63783908927332
33 0.0
34 0.0
35 0.0
36 0.0
37 0.0
38 0.0
39 -0.042648711235215
40 0.0
 Sym=      5.5
 Ene=       0.8819
 Spin= Alpha
 Occup=   -0.000000
1 -0.040035322179779
2 0.041727175165362
3 0.19299353069147
4 0.77886467492740
5 2.72999745527708
6 0.0
7 0.0
8 0.14660917667662
9 0.0
10 0.0
11 -1.51874939274440
12 0.0
13 0.0
14 3.01908915152108
15 -0.083746579456715
16 -0.083746579456715
17 0.16749315891343
18 0.0
19 0.0
20 0.0
21 0.040035322179779
22 -0.041727175165362
23 -0.19299353069147
24 -0.77886467492740
25 -2.72999745527708
26 0.0
27 0.0
28 0.14660917667662
29 0.0
30 0.0
31 -1.51874939274440
32 0.0
33 0.0
34 3.01908915152108
35 0.083746579456715
36 0.083746579456715
37 -0.16749315891343
38 0.0
39 0.0
40 0.0
 Sym=      1.4
 Ene=       1.2430
 Spin= Alpha
 Occup=   -0.000000
1 0.0
2 0.0
3 0.0
4 0.0
5 0.0
6 0.0
7 0.0
8 0.0
9 0.0
10 0.0
11 0.0
12 0.0
13 0.0
14 0.0
15 0.0
16 0.0
17 0.0
18 0.64655029500364
19 0.0
20 0.0
21 0.0
22 0.0
23 0.0
24 0.0
25 0.0
26 0.0
27 0.0
28 0.0
29 0.0
30 0.0
31 0.0