39
 energy: -60.681833378307 gnorm: 0.115077842870 xtb: 6.5.1 (9a6b163)
N           -0.65379327270779        1.91501932952106        2.61677677283295
C           -0.65618867959210        1.28931578856134        1.63877348511525
C           -0.69716351196558        0.53495245882305        0.37382083091354
C           -0.08128732036339       -0.86995991488261        0.52413801232463
C           -0.39637551369053       -1.91881353250376       -0.35172810011580
C            0.29880266287750       -3.11113051828367       -0.14170791966475
C            1.32782425859608       -3.27675600812244        0.79263598327416
C            1.74175944591490       -2.15588291532833        1.51603352070722
C            0.93624151865072       -1.01301834568010        1.47356346741537
H           -1.05742677660515       -1.71365896055263       -1.19099487751039
H            0.01194385800634       -3.91154126150525       -0.82101671868841
H            1.67887435879180       -4.29256196553209        0.96216037374886
H            2.52855909074165       -2.27776377336585        2.25760369646580
H            1.19375208574136       -0.21946449810382        2.17085626088876
C           -2.18234973212488        0.52072176912916       -0.06411095606023
C           -2.64685947585245        1.34055055710291       -1.09800067120695
C           -3.95202059594066        1.13979672461690       -1.56710679681559
C           -4.87422730352394        0.24664630469657       -1.01989992083488
C           -4.41665428143702       -0.39020481578552        0.14070230407888
C           -3.14519214404218       -0.18659028590157        0.67427325688926
H           -2.11504484270990        2.14147083865802       -1.60261181741248
H           -4.41285928459111        1.78352611548969       -2.31375960520441
H           -5.83126456297867        0.06673110843852       -1.50533210459608
H           -5.16584993066054       -0.99108678013439        0.65224504647648
H           -2.83028386528489       -0.71724197162298        1.57036788265662
C            0.17598701307541        1.38412872097584       -0.63169628984926
C            1.65670943366694        1.22209153972938       -0.39138836000592
C            2.45481931077655        0.49508481061882       -1.28658618503996
C            3.80554510372560        0.27754890238562       -1.04150468955673
C            4.38300105572330        0.82496457768869        0.10129201840031
C            3.65905018743652        1.75962389516218        0.84853151627440
C            2.28969679866444        1.94040182424871        0.63315782580649
H            1.94393246843701       -0.11408862528710       -2.02698896750623
F            4.43575017995761       -0.60227037709316       -1.86804320425221
H            5.41214556590925        0.49068185167244        0.20162284888708
H            4.21132682799692        2.27171557364578        1.63338511463256
H            1.59448952269717        2.49690077371876        1.25675434415117
H           -0.08753736500488        1.12626460421251       -1.66306104685727
H           -0.13418874719265        2.41103582420523       -0.40721910672029
39
 energy: -60.709130916839 gnorm: 0.050422837862 xtb: 6.5.1 (9a6b163)
N           -0.65740438847061        1.89341895534927        2.59613482826114
C           -0.68120309995993        1.26735282119926        1.64206340013519
C           -0.70864529911231        0.54525376104671        0.37425085119019
C           -0.06339796920208       -0.83894729710459        0.52040243819275
C           -0.35933422529597       -1.88829674969355       -0.35058007047949
C            0.29314945032872       -3.10090395670445       -0.16155400856453
C            1.28719435299132       -3.27383632899716        0.79241217618291
C            1.67106705665300       -2.18389243663206        1.56212334331584
C            0.94635896273308       -0.99906088558180        1.46566700847915
H           -1.07260717297523       -1.72714736761314       -1.15140969142979
H            0.00544831641862       -3.91968877792888       -0.81224571724439
H            1.70957497394869       -4.26575268025504        0.91879438120733
H            2.50768904529070       -2.27366302985976        2.24875122858996
H            1.19805804237572       -0.20381107819953        2.15381722632472
C           -2.18785574323977        0.53617241013475       -0.06337867338159
C           -2.66320983695117        1.33579535611625       -1.10320308433070
C           -3.96470061110676        1.16809332273699       -1.55797892605920
C           -4.84416554199045        0.24909923075914       -1.00194462593308
C           -4.41507717722456       -0.39620414162323        0.15161374064653
C           -3.12515632156244       -0.23523752370007        0.63576930835550
H           -2.09608760343035        2.10712836737172       -1.60467723172009
H           -4.37286895804527        1.78658162965351       -2.35198655498738
H           -5.80977950374459        0.07835809496914       -1.45818527096388
H           -5.14121710734632       -1.00767542380460        0.67533734183016
H           -2.82510451432101       -0.72817289338253        1.55274387946225
C            0.17215439616401        1.38924190389554       -0.61722867998338
C            1.65382917826584        1.23776484278408       -0.40633906481511
C            2.41689714832610        0.44594145348561       -1.26186812108359
C            3.76342706105240        0.24466109700287       -1.01467670288664
C            4.38740144513387        0.84725983869438        0.06952997373882
C            3.65403953872675        1.73006518778188        0.85305610160652
C            2.29824248621526        1.91679151882843        0.63186671959640
H            1.93022051974063       -0.09986610556724       -2.06190261724007
F            4.43613315627779       -0.58498991049184       -1.84970150446558
H            5.41820519154718        0.54736263079733        0.21723799114531
H            4.18404409968992        2.25236419432324        1.64073430143540
H            1.65349200728324        2.52298753793090        1.25916692305879
H           -0.08212510341162        1.11055942491988       -1.64148746754680
H           -0.11304271065362        2.43203235097448       -0.44518792559763
39
 energy: -60.718523625132 gnorm: 0.019451734091 xtb: 6.5.1 (9a6b163)
N           -0.69522777578915        1.87056286757078        2.60399390012560
C           -0.68197644573484        1.26983222119502        1.63116351141609
C           -0.70792575005459        0.56120000007046        0.36747241367582
C           -0.06566350060575       -0.81477543500500        0.52665184032169
C           -0.36365158288898       -1.86656562783461       -0.33059075384331
C            0.27101688752921       -3.08852258891044       -0.17693099344791
C            1.26288950347191       -3.25750735387772        0.77060636756733
C            1.62866584285839       -2.18917447625361        1.56943769461171
C            0.94252373351560       -0.99029332940661        1.46684370272006
H           -1.09753929679965       -1.73317683860843       -1.11425780951070
H           -0.00261047780560       -3.91353522277541       -0.81911727656347
H            1.73368249456318       -4.22740433338715        0.88444461403142
H            2.44740816565306       -2.28046217413741        2.26557716304469
H            1.20403364677799       -0.18523780123289        2.13629832702790
C           -2.17864391403235        0.53806909397651       -0.07173611868091
C           -2.66172459824343        1.31799788471373       -1.11818837415713
C           -3.96428142414241        1.17722810944297       -1.56177312750436
C           -4.81989224794128        0.26556483071848       -0.97126418412703
C           -4.39738699472952       -0.40193449049951        0.16440800476458
C           -3.09507240142199       -0.26239578545217        0.61399146683308
H           -2.05676394871857        2.06409243965405       -1.61094092210752
H           -4.32741445903895        1.78513479670672       -2.38257319830175
H           -5.80311609734004        0.10497234975511       -1.38904648310863
H           -5.09310277415238       -1.03986345316771        0.69277963843453
H           -2.78775868970338       -0.77170243052014        1.51434716733699
C            0.16867122024523        1.40021837734598       -0.61800535162867
C            1.64504735282924        1.23184955648397       -0.40417955546242
C            2.38264963261475        0.40818433593754       -1.24352312129932
C            3.72971253555053        0.23047539849402       -1.00244612113468
C            4.37969061748271        0.85024454474257        0.05065838692606
C            3.64828545857641        1.70748125696637        0.85376541691212
C            2.30010484428409        1.89775674489000        0.62979387772269
H            1.91725306263761       -0.10398402786460       -2.07527474945284
F            4.43211160845372       -0.57877031233556       -1.82549365402320
H            5.42428387013183        0.61977288553362        0.21868214225687
H            4.15291389111014        2.22861748079535        1.65488620679054
H            1.70866239986126        2.54633253761913        1.26758817953677
H           -0.07883375020517        1.09157471535455       -1.63470095449414
H           -0.09737709768010        2.45528259691790       -0.48741004916662
39
 energy: -60.721310643835 gnorm: 0.012428445723 xtb: 6.5.1 (9a6b163)
N           -0.72070028590230        1.87237694451568        2.60842245275597
C           -0.70822246162682        1.27025813904068        1.63656397542357
C           -0.70111375119190        0.58277544840951        0.36110299027453
C           -0.06819209981743       -0.79281512621815        0.52421915816030
C           -0.38414701763943       -1.84555356612347       -0.32269500761312
C            0.25274471239563       -3.06920103951487       -0.19402294265583
C            1.24515037458706       -3.24281750343744        0.75375859974966
C            1.59577307850232       -2.18842355851374        1.57989567190966
C            0.93200161569020       -0.97909543238581        1.47294778818461
H           -1.13804691408496       -1.72129042467708       -1.08962789832108
H           -0.01658538523819       -3.89140293756781       -0.83917829022183
H            1.74440615312601       -4.19979044623796        0.85034603020203
H            2.39477612535838       -2.29276730018887        2.29530922189071
H            1.20158694224822       -0.16892229033828        2.13424493837559
C           -2.16301425713261        0.53225951365718       -0.08322068099657
C           -2.65059430042421        1.30224766900286       -1.13298633210302
C           -3.95910502517584        1.17178861373155       -1.56376111737510
C           -4.81145429105857        0.27911766140368       -0.94014193966338
C           -4.36943043945584       -0.41874269281902        0.17065584060202
C           -3.05879581793608       -0.28904066832844        0.59998187653069
H           -2.02317866999096        2.02492688467652       -1.63390513958296
H           -4.30422052092394        1.77170666020934       -2.39437461004932
H           -5.81826480055979        0.14055663193543       -1.31662452810335
H           -5.04625048952521       -1.06973030320060        0.70537615787319
H           -2.73048757648869       -0.83017049972153        1.47543332461359
C            0.17177978619319        1.41083099342800       -0.63026956076123
C            1.64396887839235        1.23341672581834       -0.40428441900839
C            2.37215442437754        0.39168792554062       -1.23442968810082
C            3.72001130008006        0.21885299874205       -0.99464052898916
C            4.37633217873582        0.84800486686064        0.04635976893254
C            3.64630762173927        1.69860047906932        0.85769779861483
C            2.29793851438311        1.89369571982709        0.63062568921658
H            1.91146732612978       -0.12137109946554       -2.06209061146463
F            4.42887992879904       -0.59169914214955       -1.80821499744909
H            5.42974568735378        0.66536593466107        0.21102440427503
H            4.13658578656317        2.21510988295930        1.66919686628234
H            1.73246247344505        2.55665497198811        1.27290095544980
H           -0.06883617016004        1.08116290870987       -1.64299791922535
H           -0.08978909264846        2.46857580031711       -0.52266007359109
39
 energy: -60.722243831467 gnorm: 0.023507610381 xtb: 6.5.1 (9a6b163)
N           -0.79175521165478        1.85337131970897        2.62250106714193
C           -0.70022505398702        1.30180975939616        1.61813754581520
C           -0.69321359319659        0.60261844431395        0.34997708880793
C           -0.07037932264776       -0.77525732414428        0.52155338552586
C           -0.40492060179917       -1.82557292453318       -0.32031245052491
C            0.23703109201251       -3.04834809800348       -0.20849624591537
C            1.23006632422103       -3.22925536521940        0.73893608492180
C            1.57114032166702       -2.18587711275932        1.58424391558866
C            0.92222492501113       -0.96951321804704        1.47769962734718
H           -1.17076275526928       -1.69848705733846       -1.07386569319301
H           -0.03151706248310       -3.86334671122429       -0.86278708034096
H            1.74016948798682       -4.17829408631819        0.82245903183126
H            2.34831902376617       -2.30943257106882        2.32292796790821
H            1.19347906281785       -0.16095936445521        2.14069466501062
C           -2.15010006781133        0.53153651094534       -0.09480803345426
C           -2.64466413434604        1.29035125371771       -1.14834223644309
C           -3.96068058476264        1.16260990080431       -1.55951833098442
C           -4.81035922129446        0.28698002346175       -0.90675690915363
C           -4.34272561477072       -0.43399325612295        0.18059113192979
C           -3.02473324081861       -0.30978589497337        0.58892716994072
H           -2.01030982751954        1.99394091956018       -1.66519555547295
H           -4.30456775486198        1.75249443755747       -2.39468122310033
H           -5.83409681244695        0.16729925181420       -1.24566989560829
H           -5.00356851929272       -1.09834818317094        0.71850751845143
H           -2.67070437976419       -0.88091823024227        1.43853407480174
C            0.18187415331209        1.41849466759856       -0.64475153572035
C            1.65070596544366        1.23674277513172       -0.40495066816636
C            2.37574762194621        0.38128288607200       -1.22519145389091
C            3.72394652719484        0.20728418648281       -0.98514322744504
C            4.38000792699280        0.84767983735765        0.04870296690430
C            3.64910904444876        1.69670449634840        0.86193761391090
C            2.29884778343369        1.89477323108555        0.63279075041385
H            1.91282481621693       -0.13787487510304       -2.04694721360039
F            4.42978060806822       -0.61293565003976       -1.79124681820974
H            5.43474735007628        0.68896516188988        0.20896403010149
H            4.13182433060462        2.21002493667516        1.67892034090595
H            1.74444406267658        2.56301302104819        1.27411637402168
H           -0.05425957375737        1.07075312086190       -1.65255949275521
H           -0.07910355429433        2.47660912454787       -0.55396106325936
39
 energy: -60.722708432548 gnorm: 0.017295498683 xtb: 6.5.1 (9a6b163)
N           -0.77990780241906        1.88425284379427        2.59705085187299
C           -0.72809325608985        1.30359275704568        1.61770168582154
C           -0.69055363467601        0.61289455479149        0.34271491786923
C           -0.07275907245729       -0.76649477916422        0.52013649435295
C           -0.41431072257096       -1.81046948076412       -0.32633712204624
C            0.22857529017917       -3.03278877545241       -0.22121609374696
C            1.21956010226269       -3.22122399025659        0.72739380943187
C            1.55560752813611       -2.18528910574476        1.58350032586487
C            0.91168712869433       -0.96712172814994        1.48300656469940
H           -1.18207474808059       -1.67439049583779       -1.07384352754922
H           -0.04006827975067       -3.83974432273463       -0.88613653115888
H            1.72944689177588       -4.16786520020250        0.80309501935436
H            2.31601067902122       -2.32534135648802        2.33917167313198
H            1.18106699091464       -0.16306268938084        2.15209032938199
C           -2.14414614989557        0.52861388834336       -0.10578519339148
C           -2.64540432981122        1.28201719807273       -1.15901259433772
C           -3.96734131046092        1.15316103023399       -1.55268665011729
C           -4.81300099813908        0.28645857668559       -0.88288387267499
C           -4.32679798909996       -0.44629557239126        0.18890379199173
C           -3.00436908250888       -0.32379003591591        0.58027780395412
H           -2.01437244866522        1.97681255666986       -1.68847729835864
H           -4.32065462473336        1.73706669861109       -2.38647416139019
H           -5.84408519529794        0.17853874535943       -1.19720608495402
H           -4.97788205004548       -1.11931383515718        0.72777080485747
H           -2.63184840932593       -0.90885981729549        1.41345595012694
C            0.18999064302239        1.42208832850712       -0.65205065995476
C            1.65707294442189        1.23714500306166       -0.40128176383129
C            2.38359120357675        0.37671383284985       -1.21515389574818
C            3.73200526748579        0.20093714901511       -0.97481636657826
C            4.38466801597345        0.84805664955554        0.05693526124405
C            3.65238655429455        1.69931714226818        0.86643416176722
C            2.30048538365718        1.89728866595291        0.63699413164899
H            1.91691656999115       -0.15054944794714       -2.03142072795690
F            4.43222796978064       -0.63025809282581       -1.77529218426492
H            5.43844875352868        0.69633971876338        0.21371553787251
H            4.13393607132113        2.21309485240185        1.68325035414359
H            1.74745317640303        2.56829909843631        1.27447705521638
H           -0.03916884740752        1.06643285106998       -1.65837159193788
H           -0.07065467188658        2.48087592783483       -0.57369298056445
39
 energy: -60.723013806346 gnorm: 0.006683921248 xtb: 6.5.1 (9a6b163)
N           -0.79095034077570        1.88878071208731        2.59326585875700
C           -0.72770988510620        1.31172746268565        1.60904792686189
C           -0.68898057955057        0.61507987950231        0.33752679366814
C           -0.07035937753942       -0.76413862872428        0.51669009060923
C           -0.40729470087444       -1.80391478702569       -0.33737155168240
C            0.22953293117639       -3.02839962126825       -0.22847168825759
C            1.21306362106510       -3.22276959053921        0.72628407529247
C            1.54719452984261       -2.18981034339589        1.58646499450133
C            0.90680111334266       -0.96854065571956        1.48513232371528
H           -1.17142456599686       -1.66172535007530       -1.08673117203101
H           -0.04024823572832       -3.83186821044261       -0.89776910141799
H            1.72143640408506       -4.17188457897085        0.79657281659534
H            2.30951315921356       -2.33224267383322        2.33846447200152
H            1.17310425346179       -0.16763846393776        2.15912662980624
C           -2.14401025909452        0.53037572304335       -0.10910581135114
C           -2.65112823306833        1.28255295163602       -1.16008288922814
C           -3.97504268433856        1.14984894154573       -1.54536011386168
C           -4.81450999454814        0.27945133632078       -0.87441798810569
C           -4.32381498967959       -0.44970138853898        0.19574672165159
C           -3.00082036467025       -0.32307006360553        0.57968069768811
H           -2.02649087968975        1.97744677866788       -1.69667431511785
H           -4.34002357694254        1.73180605785228       -2.37664959189356
H           -5.84448378177780        0.17210848863343       -1.18295224030786
H           -4.97350513601856       -1.12200426668607        0.73641290536222
H           -2.62511474694017       -0.89966762448700        1.41355394126700
C            0.19425096259177        1.42137865777938       -0.65773406769827
C            1.66122974184843        1.23659613813970       -0.40202286840881
C            2.39092999961584        0.37457107163877       -1.21103532341108
C            3.73841719947234        0.19718753805702       -0.96718963381691
C            4.38847496444595        0.84809563101680        0.06430977075179
C            3.65433993749452        1.70298761782360        0.86733371949940
C            2.30299976458018        1.90003420093844        0.63590406514673
H            1.92309336351229       -0.15847086955401       -2.02381819415409
F            4.43767328377796       -0.63808525648299       -1.76498699490274
H            5.44217390378790        0.69195480324393        0.22233147752485
H            4.13825798070631        2.22093157943923        1.68046943126967
H            1.74503456660542        2.57159543093830        1.26997366170797
H           -0.03224602855710        1.06612601872687       -1.66435777474274
H           -0.06571977861068        2.48043469718601       -0.58162382924628
39
 energy: -60.723292860181 gnorm: 0.006427750454 xtb: 6.5.1 (9a6b163)
N           -0.80677699269489        1.89962579678526        2.57877911239519
C           -0.72498784450010        1.32848198343589        1.58975388608862
C           -0.68487110029717        0.62043862617503        0.32593182553957
C           -0.06783787313739       -0.75895457550096        0.51015301970082
C           -0.39599020171469       -1.79028295144260       -0.35891327810487
C            0.23145362902905       -3.01843703643233       -0.24797964557078
C            1.20161514239062       -3.22332798760916        0.71775046818172
C            1.52978753381499       -2.19775630656951        1.58809867338772
C            0.89506084650233       -0.97268066511438        1.48888011768161
H           -1.14894672202633       -1.63532746896085       -1.11589134345511
H           -0.03792124856325       -3.81551142783496       -0.92574126434618
H            1.69975467356745       -4.17662437288263        0.78829663315701
H            2.28649003169661       -2.34841329716400        2.34325221262397
H            1.15436822565336       -0.17854908834388        2.17360180067679
C           -2.14182701936112        0.53277593020410       -0.11717098513913
C           -2.66056818978358        1.28051983557569       -1.16527080777009
C           -3.98974610890357        1.14374263566354       -1.53186721711763
C           -4.81882912008186        0.27120568386373       -0.85141081423822
C           -4.31525046687493       -0.45669378837102        0.21283617298943
C           -2.98896858083644       -0.32444796816897        0.57917861352485
H           -2.04539983300818        1.97528486762969       -1.71386408923556
H           -4.37471055693824        1.72364083360329       -2.35768732955240
H           -5.85186566303741        0.16673175277419       -1.14355973967684
H           -4.95794585902104       -1.13238682780057        0.75751673536848
H           -2.60102900396885       -0.89512448335028        1.40938130561147
C            0.20176851697658        1.42090066827992       -0.67035275367025
C            1.66830095339443        1.23644487132469       -0.40471890248177
C            2.40276831093833        0.36571787739016       -1.20034803884748
C            3.74862585509084        0.18806363255536       -0.94866487175402
C            4.39488091342729        0.85035779658293        0.07890783550600
C            3.65635187684975        1.71227619014011        0.86955317340456
C            2.30681499089064        1.90805397406536        0.63104137889453
H            1.93560919137057       -0.17711538926000       -2.00851644471357
F            4.44898530019197       -0.65589984151672       -1.73712651619915
H            5.44812248218995        0.68832523925179        0.24335312410887
H            4.14117576236766        2.23765650500081        1.67836740365305
H            1.74193346840209        2.58199127347600        1.25841367980225
H           -0.02049544414988        1.06147434703223       -1.67626953796845
H           -0.05625633472707        2.48096249912850       -0.60175636841304
39
 energy: -60.723482021289 gnorm: 0.006572117095 xtb: 6.5.1 (9a6b163)
N           -0.80715467938098        1.91389050424681        2.56106850731769
C           -0.72253701463394        1.34018699023728        1.57389289408583
C           -0.68081305462218        0.62530983114616        0.31468869520337
C           -0.06526722398196       -0.75388597200449        0.50146573746886
C           -0.38440127948215       -1.77790261648955       -0.38079070909650
C            0.23415126851890       -3.00986414752862       -0.26862651127175
C            1.18945038981393       -3.22487389273284        0.71018099185935
C            1.51119420626165       -2.20640109592339        1.59056978889015
C            0.88303246495197       -0.97717126654141        1.49137732654540
H           -1.12519310474511       -1.61220708616602       -1.14804499442233
H           -0.02982124365397       -3.80084872439123       -0.95580908945686
H            1.68331172442625       -4.18199143035261        0.77985032441816
H            2.25963937263005       -2.36471751974970        2.35222304101811
H            1.13535402275754       -0.18880519286039        2.18566218884602
C           -2.13942395667320        0.53335508725732       -0.12377068882069
C           -2.66874808951380        1.27793537860349       -1.16831148597284
C           -4.00221259104137        1.13904910319988       -1.51881350905583
C           -4.82272751083255        0.26632796392119       -0.82835583302868
C           -4.30702899338851       -0.46247076815368        0.22990678843077
C           -2.97755043462125       -0.32643359427224        0.58068378443423
H           -2.06001785058384        1.97254618813842       -1.72553568440071
H           -4.40160401269139        1.71809164631379       -2.33970217123813
H           -5.85918959563642        0.16286917231868       -1.10646070846998
H           -4.94280567593241       -1.13973942138548        0.78015363356085
H           -2.57820415602161       -0.89413264516769        1.40745708345485
C            0.20752466348368        1.42031650291502       -0.68338393220153
C            1.67326477747087        1.23626665355041       -0.40881313135468
C            2.41154105919609        0.35650664343831       -1.19088446744660
C            3.75571249420718        0.17988802096409       -0.93017370645049
C            4.39757618079404        0.85163355074609        0.09378303558038
C            3.65557702319441        1.72219675455632        0.87158341475891
C            2.30803424051590        1.91709634409988        0.62382118391753
H            1.94770783234698       -0.19577092636916       -1.99485464624045
F            4.45883737828498       -0.67404835004417       -1.70570884963150
H            5.44994106902336        0.68641356109052        0.26600317951725
H            4.13860622577728        2.25538574809620        1.67695287870524
H            1.73861212096142        2.59632813401878        1.24269929650745
H           -0.01122925946588        1.05600424964915       -1.68837890797758
H           -0.04949524659553        2.48080596524022       -0.62166752394137
39
 energy: -60.723723644735 gnorm: 0.004934612058 xtb: 6.5.1 (9a6b163)
N           -0.79565837014641        1.93160601140702        2.53846720262716
C           -0.71489538191752        1.35093467226482        1.55593517424179
C           -0.67469938063949        0.62990749536362        0.30059399992068
C           -0.06193207726274       -0.74943774409777        0.48858389386432
C           -0.36764960298355       -1.76431018866461       -0.40988812858388
C            0.24164857797921       -3.00033790638244       -0.29792645447138
C            1.17698453285481       -3.22773179542437        0.69807257276700
C            1.48828734576641       -2.21831915411144        1.59208984824437
C            0.86746576749725       -0.98517471900352        1.49277598898474
H           -1.09081773379306       -1.58630750397628       -1.19320272476441
H           -0.01298254392341       -3.78500942906172       -0.99550409170988
H            1.66027996894172       -4.18976037832875        0.77465137902467
H            2.22157654557264       -2.38631367749472        2.36687319485606
H            1.11106312473204       -0.20317750264942        2.19771669015480
C           -2.13585516545795        0.53316379281299       -0.12896719395835
C           -2.67768631513775        1.27512930483576       -1.16829695419172
C           -4.01528253917649        1.13485162189555       -1.50155175368998
C           -4.82604800294393        0.26236763678149       -0.79964101233212
C           -4.29713697131667       -0.46685192640967        0.25249644246787
C           -2.96398483044714       -0.32808160343286        0.58605799116712
H           -2.07495753777838        1.97000960556086       -1.73287515256055
H           -4.42741941271809        1.71379500507895       -2.31683795051080
H           -5.86644769529741        0.15781656492522       -1.06326245576906
H           -4.92455691156582       -1.14479091427857        0.81083841250660