39
 energy: -60.717283624318 gnorm: 0.064687143540 xtb: 6.5.1 (9a6b163)
N           -0.40955060000000        1.88595390000000        2.53145910000000
C           -0.50779350000000        1.27171050000000        1.55112520000000
C           -0.63660210000000        0.52288860000000        0.28877720000000
C           -0.09164320000000       -0.91197060000000        0.42976160000000
C           -0.42287440000000       -1.85143590000000       -0.55725760000000
C            0.14295030000000       -3.12756840000000       -0.53911140000000
C            1.04489770000000       -3.48181800000000        0.47099450000000
C            1.37240480000000       -2.55098410000000        1.45957440000000
C            0.81002870000000       -1.27033820000000        1.43763060000000
H           -1.13093580000000       -1.58220130000000       -1.33803140000000
H           -0.12330180000000       -3.84638830000000       -1.31164850000000
H            1.48680530000000       -4.47596220000000        0.48620760000000
H            2.07387800000000       -2.81478680000000        2.24835730000000
H            1.08617390000000       -0.54693390000000        2.20096980000000
C           -2.14425480000000        0.50170200000000       -0.06378420000000
C           -2.66560360000000        1.08822630000000       -1.22180030000000
C           -4.03752050000000        1.01485000000000       -1.49796730000000
C           -4.89991400000000        0.35989230000000       -0.61766840000000
C           -4.38448470000000       -0.22414480000000        0.54645500000000
C           -3.01907030000000       -0.15431600000000        0.81763820000000
H           -2.01724960000000        1.60619040000000       -1.92200230000000
H           -4.42634890000000        1.47440980000000       -2.40453640000000
H           -5.96506720000000        0.30509900000000       -0.83302990000000
H           -5.04719280000000       -0.73545770000000        1.24172930000000
H           -2.61792220000000       -0.61429150000000        1.71833060000000
C            0.22386490000000        1.27265180000000       -0.80301430000000
C            1.70390230000000        1.29142940000000       -0.51030350000000
C            2.52034870000000        0.24354360000000       -0.96002340000000
C            3.87239480000000        0.25539050000000       -0.63803270000000
C            4.45328750000000        1.27100020000000        0.11708600000000
C            3.63203430000000        2.31254000000000        0.56070500000000
C            2.26901700000000        2.32494580000000        0.25050320000000
H            2.10880210000000       -0.58308960000000       -1.53238770000000
F            4.65571030000000       -0.76950090000000       -1.07440500000000
H            5.51558630000000        1.23881140000000        0.34387840000000
H            4.06067240000000        3.11794230000000        1.15302170000000
H            1.63617010000000        3.13230350000000        0.61044100000000
H            0.03432390000000        0.75280430000000       -1.74825770000000
H           -0.15592300000000        2.29690240000000       -0.89138340000000
39
 energy: -60.687481028969 gnorm: 0.109193008819 xtb: 6.5.1 (9a6b163)
N           -0.29121370597149        1.70733933177876        2.61338211634876
C           -0.52402425397833        1.30636858663273        1.54894668259589
C           -0.65389106860691        0.53982970443026        0.29738728705834
C           -0.05935443707433       -0.87492086031521        0.44120849497864
C           -0.38371231085690       -1.78021492711205       -0.57945332615766
C            0.30873165254685       -2.99070349914285       -0.64456663412287
C            1.09360619023020       -3.42566105934514        0.42972366979537
C            1.29170985055426       -2.54237382148710        1.49347242683890
C            0.88211984516477       -1.20676855057349        1.42138328353179
H           -1.19712112171133       -1.54837496068295       -1.26360406349212
H            0.08175633070441       -3.58067654725339       -1.53046718198650
H            1.62367009504669       -4.37397945417692        0.37005028720085
H            1.91408030085322       -2.92764536611059        2.29849156260476
H            1.33915923210970       -0.50035629436561        2.11011643524755
C           -2.14244362796943        0.47801772418792       -0.12469730281266
C           -2.69125178650622        1.02985396623691       -1.28706678931807
C           -4.06371343730122        0.97371972045706       -1.56456661141037
C           -4.90025068653810        0.39569499445936       -0.60868425099921
C           -4.33892405874060       -0.13738212504409        0.55865937515068
C           -2.96918825288721       -0.15784219925543        0.81591025108520
H           -1.97576095873570        1.51686439221837       -1.94267812610814
H           -4.48214164634954        1.42485977632890       -2.46214152030213
H           -5.97319039069078        0.32584844148532       -0.77558556020025
H           -5.03084514980853       -0.64622940182597        1.22675284599537
H           -2.68765924463691       -0.72159875443525        1.70285104286339
C            0.21898303263860        1.34235911693218       -0.74596987758018
C            1.69980931433267        1.25460961329108       -0.47029547233871
C            2.41985043636828        0.09953926175447       -0.80830518823154
C            3.77801861916673        0.16635138752113       -0.52062080354291
C            4.36860635020553        1.22886068914071        0.15863152608983
C            3.61099410798525        2.35975625782532        0.47981475813047
C            2.26701779930874        2.40433978891138        0.09780012521343
H            1.90245561698055       -0.70069252400813       -1.33005762786255
F            4.50990575661395       -0.85965236453848       -1.03643456592446
H            5.44889904965436        1.14275853652631        0.23927730445448
H            4.05955172212603        3.17923315768412        1.03703663691223
H            1.75609827707014        3.34146065708011        0.30430090425198
H            0.08721179101848        0.96111572281988       -1.76427340368588
H           -0.14090888266814        2.37703416116744       -0.77856681944111
39
 energy: -60.684450721540 gnorm: 0.097585346288 xtb: 6.5.1 (9a6b163)
N           -0.38380971949831        1.72540424168217        2.64042634984230
C           -0.42082523525091        1.16172307337613        1.62608199655865
C           -0.62907154082212        0.54916589595262        0.30235417844452
C           -0.09248871448329       -0.89555896708779        0.27940962477844
C           -0.22744119812198       -1.75558195796375       -0.81998302673493
C            0.25873387208195       -3.05418192288869       -0.65789386137330
C            1.14547646549817       -3.33683925512586        0.38762427870623
C            1.45399317031478       -2.38596418765870        1.36315330201579
C            0.66808917826005       -1.22950607060469        1.40512715071009
H           -0.86085323935242       -1.49823841885326       -1.66615640080530
H           -0.12452764260957       -3.80876910605935       -1.34208284721283
H            1.65284620656159       -4.29882745519223        0.41910575966261
H            2.28780534200800       -2.58158919684221        2.03421445377861
H            0.61936540717333       -0.68677892221380        2.34604684715851
C           -2.13608011288168        0.51796250289237       -0.05221084698645
C           -2.66274925075974        1.02029332726711       -1.24682368062453
C           -4.03361933207064        0.91631794885160       -1.51832419947122
C           -4.89969734513810        0.34094999704547       -0.58747575082122
C           -4.35669182907716       -0.18737411047514        0.59064503457286
C           -2.99783599873192       -0.08003304877583        0.88178336665860
H           -1.99722424012520        1.50929642019585       -1.95172433813002
H           -4.50491689882476        1.33677827674626       -2.40451941009936
H           -5.97090781534660        0.35550036179177       -0.77781915387513
H           -5.00074052941470       -0.74197232879823        1.27009431018870
H           -2.79259366558330       -0.50661373817863        1.86139987392705
C            0.18260716501924        1.37561284798859       -0.77129377754950
C            1.66741617548124        1.36041063469433       -0.50361129654262
C            2.41647642121277        0.22782934375380       -0.85441844906939
C            3.76255018519746        0.15420257019229       -0.51602299112017
C            4.44095600853427        1.19657007227150        0.11034681476353
C            3.70038359904332        2.36317146022741        0.32634095281339
C            2.31924918682908        2.43288754036302        0.12188414619734
H            1.89436789082774       -0.62239696712127       -1.28431589817054
F            4.39921541611743       -1.02149107204422       -0.77449572914996
H            5.49013272552056        1.02009370044066        0.33178290282399
H            4.16390765466170        3.24029649828031        0.77247956421601
H            1.90778092829330        3.30801401577135        0.61859771531401
H            0.05676527271332        0.89861453028296       -1.74919391674022
H           -0.28711963820319        2.36514027206976       -0.80775473056917
39
 energy: -60.689625873062 gnorm: 0.099554320206 xtb: 6.5.1 (9a6b163)
N           -0.49543774570704        1.79158080611670        2.54228321086472
C           -0.57803973812299        1.22755264544123        1.53082375424266
C           -0.62582968173788        0.57601939845885        0.21019181005353
C           -0.09001044013558       -0.86195851793053        0.35439565097728
C           -0.34873890788516       -1.80330292222287       -0.65230500298917
C            0.35244793575500       -3.00619884942103       -0.75418410686123
C            1.19517521119545       -3.39822354160562        0.29245009335129
C            1.36251370283244       -2.55439737328043        1.39288548190032
C            0.83992631304342       -1.25879494628683        1.32133815620674
H           -1.01123964173535       -1.57886701339509       -1.48547196704624
H            0.31498280436169       -3.59794112637926       -1.66678654506343
H            1.84524808632160       -4.26278104659140        0.17505329395080
H            1.96903471530504       -2.86518531678247        2.24104705913417
H            1.14643223676309       -0.57994442346584        2.11346991233395
C           -2.14507162265948        0.52950857592013       -0.08562152877692
C           -2.70307769720524        1.11456605768212       -1.22717899101916
C           -4.07028091853488        0.91319071339029       -1.45958278790869
C           -4.89152975045807        0.23599936450976       -0.55704166543523
C           -4.37937166010370       -0.15272261482004        0.68736150739300
C           -3.00660794582354       -0.01111170903096        0.88290929596720
H           -2.13605483606251        1.54247793689920       -2.04834219264143
H           -4.65053632579788        1.23294731701932       -2.32289595003920
H           -5.92919579612942        0.02926538528599       -0.81090075658349
H           -5.00157660657193       -0.57278253628720        1.47504158058814
H           -2.70789795747915       -0.41078948232863        1.84974642171676
C            0.19714996570520        1.44274745079599       -0.82230215705955
C            1.66262921852461        1.36576697071520       -0.47160658483524
C            2.41363833153500        0.24705540195422       -0.86066574420352
C            3.74987301349135        0.11368648884367       -0.50214576723172
C            4.45530934756646        1.16258315776025        0.08204509201730
C            3.73457577102056        2.32397184996440        0.37832060105568
C            2.35943268903717        2.41534910504834        0.14416919074642
H            2.00789737270504       -0.56827678076069       -1.45303523998323
F            4.34219922140064       -1.11131746554650       -0.55619470452568
H            5.53831745865667        1.16458172011602        0.17170596082524
H            4.18352427742985        3.20650814674206        0.82867320299397
H            1.91901133288530        3.38402723965278        0.36680914236974
H            0.05875374627916        1.09530090067407       -1.85175814613204
H           -0.12476843670918        2.47742056988198       -0.65811544356862
39
 energy: -60.690052334540 gnorm: 0.109711589112 xtb: 6.5.1 (9a6b163)
N           -0.58860260647552        1.95316523434848        2.51095918776713
C           -0.58094620231858        1.30151001956833        1.55008045797362
C           -0.59175042020879        0.61979850376149        0.24394079029741
C           -0.07243416194650       -0.82798376626101        0.34351294706389
C           -0.36775158740118       -1.69798465571919       -0.71592179982289
C            0.31567458750425       -2.90867898241322       -0.84299997465144
C            1.18567106492726       -3.31993378139756        0.17350943862129
C            1.43216948244237       -2.48553830028025        1.26622418899695
C            0.86728180491417       -1.20650342728349        1.30834251197300
H           -1.06394672591138       -1.46511548641854       -1.51874816081151
H            0.20085649859300       -3.61908298982026       -1.65942432402544
H            1.54942691747183       -4.34532458823154        0.18309085712213
H            1.95700989448969       -2.83090474880354        2.15453691713818
H            0.99177126849309       -0.55232518817440        2.16788299245206
C           -2.09801197640970        0.50559475855777       -0.09649787180834
C           -2.67824908161830        1.02666156872384       -1.25780349078534
C           -4.05133030809159        0.83507723190644       -1.46213552421590
C           -4.85651089382932        0.26723028851590       -0.47377713242269
C           -4.27906377350353       -0.21950656796962        0.70588044221283
C           -2.90179275125114       -0.09960271014838        0.88342027448142
H           -2.19061244925571        1.46975922469760       -2.12082578490944
H           -4.61013330461894        1.11830113866269       -2.35195217027812
H           -5.94355892605987        0.22076668955134       -0.48387193556123
H           -4.92319056056892       -0.64121533405045        1.47483533489466
H           -2.52549449501585       -0.41809230840320        1.85332130200928
C            0.21712757742061        1.40978834747439       -0.85886890892108
C            1.67041078198563        1.32045507274860       -0.46322978235722
C            2.34052357463930        0.11608426821813       -0.72272372220111
C            3.69747109288520        0.06065703868367       -0.42697345086209
C            4.35546434334408        1.10452598813641        0.21838389357693
C            3.72164383074947        2.33978105478346        0.38713293181214
C            2.36084987635414        2.41532150276992        0.07612065830861
H            1.94422172708427       -0.81655729900584       -1.11441041517871
F            4.41848342911995       -1.07243986119862       -0.65200442389933
H            5.37358637338241        1.07834473689924        0.59745078556386
H            4.22885365027921        3.19992936968799        0.81855571268540
H            1.76355252363322        3.30242054215507        0.27148702232930
H            0.03815781672996        0.95870911722628       -1.84078010791007
H           -0.01219840245455        2.47965219775491       -0.79611439216948
39
 energy: -60.684223541711 gnorm: 0.104138438451 xtb: 6.5.1 (9a6b163)
N           -0.55538631965639        2.02752893490962        2.43912407476063
C           -0.48354439714468        1.38860811629034        1.47236660024281
C           -0.58607728853573        0.62516181704177        0.21638692682140
C           -0.09408799107778       -0.82997769110149        0.34363904419819
C           -0.35901883731644       -1.60887363612878       -0.79198796867475
C            0.09981581705304       -2.92732056930566       -0.77897159014464
C            1.07808813796322       -3.29281377980413        0.15307656644761
C            1.41304179321212       -2.40615798447445        1.17906408239808
C            0.72148088722870       -1.21308261195904        1.41383406978191
H           -0.80042488789844       -1.23501689476333       -1.71331187431043
H           -0.19987891512164       -3.69967855295737       -1.48469957671978
H            1.54784559723583       -4.27183573208157        0.08466322481691
H            2.25114438285213       -2.60045703681063        1.84514732469558
H            0.85097435852314       -0.55025625513692        2.26597801826713
C           -2.10343050145875        0.44873420482721       -0.03714297552262
C           -2.71552823292952        0.88820452822555       -1.21570934537998
C           -4.10229443112094        0.81039069259023       -1.40180803723256
C           -4.92359194774582        0.27184136859975       -0.41031761401170
C           -4.29000462318746       -0.24395852966141        0.72742906682028
C           -2.91452023029151       -0.15795931179244        0.93580282308958
H           -2.22237586962156        1.25891591499347       -2.10918924075678
H           -4.53956924886649        1.20492644761552       -2.31689410486012
H           -6.00623560396781        0.16321491909890       -0.40616958735916
H           -5.00958507641912       -0.74915007345306        1.36853335380824
H           -2.53821605335350       -0.60782648025663        1.85218631622414
C            0.25459590062259        1.33171850722478       -0.91877960713858
C            1.72511434921966        1.34953121644741       -0.58143554970081
C            2.45606154476856        0.17222839806626       -0.79724000261518
C            3.76700028176470        0.08975151533748       -0.34283472475893
C            4.42257236763669        1.09420635972434        0.36455435270175
C            3.71509914476560        2.29059315842490        0.52011792170626
C            2.39638642250296        2.39532951757394        0.06820839049071
H            2.13856752727301       -0.67928262656088       -1.39257220977993
F            4.48425883180279       -1.02781541896918       -0.64448125807451
H            5.46818172934434        1.10929331361515        0.66022829339875
H            4.24216719124968        3.06282615089187        1.07608376448251
H            1.85803890802188        3.33073905194128        0.19885219308781
H            0.02487113755781        0.81094364108617       -1.85455325783481
H           -0.08749513328601        2.36157425175022       -1.07210300467217
39
 energy: -60.689674201971 gnorm: 0.097993836894 xtb: 6.5.1 (9a6b163)
N           -0.33473065147677        2.06675655113866        2.33431766740623
C           -0.50659292740008        1.44500766669796        1.36897173210819
C           -0.61878568304881        0.60530457297833        0.16350099770531
C           -0.05574526458882       -0.82479501865139        0.27959650097531
C           -0.47245188243465       -1.77800115672657       -0.66075959641161
C            0.21622275384217       -2.98426362786692       -0.80097038427848
C            1.08483388702639       -3.41805784439640        0.20732176347993
C            1.26608935796812       -2.54883770828131        1.28556368130247
C            0.90462488919565       -1.19881649884875        1.22566015656145
H           -1.37184428054967       -1.62279340959513       -1.25274757423893
H           -0.02887821569092       -3.63477905521424       -1.63832393511930
H            1.53804636530473       -4.40370431561175        0.12403961413029
H            1.82755055327119       -2.87691593503026        2.15789444192498
H            1.34089843602422       -0.47381342269631        1.90851634089234
C           -2.13237294688251        0.55145790476773       -0.15886371306013
C           -2.77811725015603        1.07506167672331       -1.28388365277535
C           -4.14841799787868        0.80224234412500       -1.39183586116762
C           -4.87815701749347        0.16667556337421       -0.38627428826887
C           -4.23859286030972       -0.21528210414193        0.79990275379931
C           -2.86393738568146       -0.00837267334708        0.90131094372843
H           -2.31584665180085        1.63492656015921       -2.09121859686084
H           -4.66998153009115        1.18935945452384       -2.26496933710373
H           -5.94313893727819       -0.03121464611457       -0.48916828840049
H           -4.92965955879558       -0.72286250280595        1.46984169807273
H           -2.32781202516300       -0.41755559755045        1.75505736292773
C            0.26765353315515        1.35043383842315       -0.91054031290272
C            1.73107621652608        1.28550864763033       -0.54898588568300
C            2.52782541603454        0.18898710082276       -0.90916433457098
C            3.82723349796891        0.15239729532921       -0.41718181470043
C            4.37503399931091        1.17578012035832        0.35204235065303
C            3.58591636903725        2.30358527599221        0.59985006398735
C            2.23736933503528        2.33373383503665        0.23282533712042
H            2.12877945038433       -0.57147945911332       -1.57455658571092
F            4.54354355986764       -0.99230595974614       -0.59313826093216
H            5.38390821054697        1.09094388662509        0.74691609989267
H            4.13907397924530        3.00632798175686        1.21905269060582
H            1.62602874337129        3.19101136992860        0.50340760246262
H            0.03454172564543        0.91058033663149       -1.88616321333200
H           -0.06815617751394        2.38414290490338       -1.05130466984497
39
 energy: -60.696332856478 gnorm: 0.099584115522 xtb: 6.5.1 (9a6b163)
N           -0.21885357219385        2.01707832742588        2.23974221550489
C           -0.26497780492588        1.31631184077485        1.31518827713244
C           -0.54972118999826        0.59186485969629        0.06421026763035
C           -0.07857598214405       -0.87177837309087        0.17120658058948
C           -0.43099385084155       -1.83323807778658       -0.78687108488103
C            0.02579078240729       -3.14615133123753       -0.65800079297307
C            0.93795084942298       -3.42587266620636        0.36622367479548
C            1.40221197202312       -2.47364211163973        1.27656504112538
C            0.81282958324997       -1.20757968384281        1.19583965840826
H           -1.17122237967683       -1.51752600925532       -1.51887758084066
H           -0.29796411744282       -3.86570199631437       -1.40755758068102
H            1.32396648802466       -4.44275738066391        0.33840573408196
H            2.27974411663323       -2.66772135314625        1.88983947571339
H            1.02602578160445       -0.48719011741553        1.98186948817508
C           -2.08966660658357        0.60156353283493       -0.09777407282670
C           -2.72611103442227        1.12949666860098       -1.22606551362268
C           -4.08816535396504        0.83202678809711       -1.36793835392561
C           -4.82735755880411        0.16545667125108       -0.38972702412347
C           -4.21722036488365       -0.24614941577275        0.80202084085460
C           -2.85808965050187        0.03430906136938        0.93194214484071
H           -2.19396723151470        1.67196279482090       -2.00162078670891
H           -4.60185698699817        1.21205152003135       -2.24881992883411
H           -5.88703941368899        0.02980516533400       -0.59614221827091
H           -4.85378313359892       -0.74461734125631        1.53026997249705
H           -2.33003427672176       -0.31398999673924        1.81714794051599
C            0.26799392318122        1.34693135905360       -1.05640269926153
C            1.69611887582660        1.29650482730377       -0.57219289598525
C            2.51478562336492        0.20081106368336       -0.88225296417020
C            3.82321841675071        0.22319535081093       -0.41390528293553
C            4.31713951664123        1.22764655672144        0.41448069978037
C            3.45239650194401        2.26869005361218        0.76733721959219
C            2.13007227969398        2.29242375445888        0.31446797213989
H            2.06402616567511       -0.60947039047010       -1.44842767104720
F            4.56405634708847       -0.87338274745320       -0.73496907061933
H            5.34623133891547        1.09290309055687        0.73660468018836
H            3.89134037106090        2.97096613826575        1.47258832884100
H            1.50286797111907        3.12887721787627        0.61252369571081
H            0.15047806467292        0.85701532972617       -2.02893782444148
H           -0.14503923645166        2.35783968681707       -1.14916672761425
39
 energy: -60.698992530421 gnorm: 0.092121397284 xtb: 6.5.1 (9a6b163)
N           -0.12655716207918        1.89882782250625        2.35881465738765
C           -0.33239224831273        1.29947932272134        1.38597634363325
C           -0.54289376043581        0.62557218788650        0.09276851858536
C           -0.04837444405990       -0.83211241740582        0.17203882641243
C           -0.43825363414452       -1.82217627417619       -0.74135250201559
C           -0.10275659942183       -3.16165002936864       -0.53579772038690
C            0.87453724833869       -3.46495903898070        0.41930235701485
C            1.40637731431550       -2.49572090867279        1.27295709924268
C            0.89642622597774       -1.20035942836189        1.13587760553470
H           -1.07207506279251       -1.53449201072958       -1.57738722734894
H           -0.62268192979202       -3.87429043212699       -1.17315718097748
H            1.25709123837551       -4.48295667074192        0.45350327116701
H            2.15043544395002       -2.75381172190904        2.02369112851259
H            1.19095613887615       -0.45099385430237        1.86660328175147
C           -2.07420899933809        0.50149557268286       -0.10073475469617
C           -2.74303052104360        0.99706760998657       -1.22496899062713
C           -4.13134999613902        0.91383587404672       -1.39657818254933
C           -4.87882326331583        0.29658372610631       -0.39263508367535
C           -4.24669905392686       -0.23450288140167        0.73887538468384
C           -2.86808442669209       -0.09688157654757        0.89137093268413
H           -2.11667655987791        1.34441271175188       -2.04103553875537
H           -4.60880307834048        1.33572406915615       -2.27879082278300
H           -5.95001982573168        0.18041422631453       -0.54421598739359
H           -4.82609175545678       -0.64839008443549        1.56169414586156
H           -2.36513964731759       -0.52634349520225        1.75528818687360
C            0.25127024675253        1.31434853900036       -1.08597975978251
C            1.69817637477182        1.36961136614942       -0.66177283798718
C            2.58117511473092        0.32722681273977       -0.97901875526689
C            3.83807535002999        0.24322244287022       -0.39165852655970
C            4.26838405254584        1.14580425991682        0.57750817420676
C            3.43637104055123        2.23692966694003        0.84817301695587
C            2.19512779837175        2.34524010919233        0.21431242602765
H            2.26312709625175       -0.41383255235904       -1.70700941074193
F            4.67754828316984       -0.72277333680925       -0.85700105056624
H            5.30051411821176        0.98300033351509        0.87609157356443
H            3.69726178291715        3.02537107669104        1.55069611851037
H            1.61216436411766        3.25300684367787        0.34843939201029
H            0.13940611958282        0.66427657371277       -1.96036246811243
H           -0.17563791462350        2.31442871221399       -1.22282371805602
39
 energy: -60.679807984195 gnorm: 0.104301574841 xtb: 6.5.1 (9a6b163)
N           -0.20348368982234        1.72943105017593        2.39277340259724
C           -0.42843503662998        1.28505324677722        1.34399967162434
C           -0.54103581327663        0.55198868982726        0.07089889555442
C           -0.03792297477694       -0.88113256048388        0.33304093585815
C           -0.60007133430030       -1.87237130080022       -0.48424169914599
C           -0.04869143454177       -3.15339353217895       -0.54719570216107
C            0.82585275435993       -3.57519319801708        0.46105688210452
C            1.31868944778558       -2.59319156170404        1.32348809570998
C            1.05702789117288       -1.23275563743368        1.12971096465699
H           -1.44286722757240       -1.62540220010951       -1.12622864523360
H           -0.33982401034152       -3.77125622837637       -1.39448153410757
H            1.06797044161785       -4.60655705656936        0.70905697934512
H            1.90834735147695       -2.89636669461255        2.18617189746934
H            1.60713221133450       -0.46620705048948        1.67012296675363
C           -2.06421594010252        0.47011565955288       -0.19552923675959
C           -2.74914418598245        1.00117197485873       -1.29355880949884
C           -4.13895607269741        0.93783803662204       -1.46154664570580
C           -4.86687843418307        0.43430812390494       -0.38256337552909
C           -4.19456279484460       -0.18780894642460        0.67711202998680
C           -2.80889667846476       -0.14783769461904        0.82238595576519
H           -2.08658219156540        1.44165734741600       -2.03242059999279
H           -4.63385257168753        1.26703539814863       -2.37311495439102
H           -5.95469002889449        0.45622461677343       -0.39350850617795
H           -4.65667728430753       -0.61399476194693        1.56528154096629