[Molden Format]
[Molpro variables]
_NUMVAR=  979.0000000000000    
_AVOGAD= 0.6022136736000000E+24
_BOLTZ= 0.1380658000000000E-22
_CLIGHT=  29979245800.00000    
_EV= 0.3674932379085202E-01
_ENULL= 0.8854187817000000E-11
_KJOULE= 0.3808798324128737E-03
_KJOULE/MOL= 0.3808798324128737E-03
_CM= 0.4556335267302901E-05
_CM-1= 0.4556335267302901E-05
_DEB2SI= 0.3335641000000000E-29
_AMU2AU=  1822.888390000000    
_KCAL= 0.1593601117815568E-02
_KCAL/MOL= 0.1593601117815568E-02
_KELVIN= 0.3166811411060229E-05
_JOULE= 0.4359748200000000E-17
_HERTZ= 0.1519829846004524E-15
_HZ= 0.1519829846004524E-15
_JPCAL=  4.184000000000000    
_PLANCK= 0.6626075540000000E-33
_TOA= 0.5291772109200000    
_TOANG= 0.5291772109200000    
_TORAD= 0.1745329251994330E-01
_TOCM=  219474.6306700000    
_TODEBYE=  2.541580000000000    
_TOE= 0.4803242000000000E-09
_TOEV=  27.21138505000000    
_TOHERTZ=  6579683920729000.    
_TOHZ=  6579683920729000.    
_TOK=  315775.0400000000    
_TOKCAL=  627.5096000000000    
_TOKELVIN=  315775.0400000000    
_TOKJ=  2625.500000000000    
_TOKJOULE=  2625.500000000000    
_TOKG= 0.1660565586000000E-26
_ANG=  1.889726124565062    
_ANGSTROM=  1.889726124565062    
_RPAREF=  0.000000000000000    
_RPADISS=  0.000000000000000    
_IGNORE_UNDEF=  2.000000000000000    
_STRICTCHECK=  0.000000000000000    
!SEWARD=  0.000000000000000    
!MULTI=  0.000000000000000    
_SEW_ONEEL=  0.000000000000000    
_CPPDONE=FALSE
_DKROLL_DONE=  0.000000000000000    
_FNUC_DONE=  0.000000000000000    
_FOCKDONE=TRUE
_GRADONE=FALSE
_HESSDONE=FALSE
_INTDONE=TRUE
_SCFDONE=TRUE
_MODUL_BLOCK=FALSE
_MODUL_CUDA=FALSE
_MODUL_SLATER=FALSE
_MODUL_MRCC=FALSE
_MODUL_NBO6=FALSE
_MODUL_NECI=FALSE
_MODUL_AIMS=FALSE
_MODUL_GECCO=FALSE
_ISWINDOWS=FALSE
_MRCC_EXEC=
_FITC_AO_SAVED=FALSE
_FITC_MO_SAVED=FALSE
_SHARED_FS=TRUE
_LSTYP=SEWARD
_INTYP=INTS
_GEOMTYP=ZMAT
_GRADTYP=ALASKA
_DIRECT=FALSE
_DKHO= -1.000000000000000    
_FNUC=  0.000000000000000    
_SYNCM=  0.000000000000000    
_BASIS=STO-3G
_ZORIENT=  1.000000000000000    
_NELEC=  42.00000000000000    
!SPIN=  0.000000000000000    
_QSDSTEP=  0.000000000000000    
_QSDIRC=  0.000000000000000    
_PROGRAM=HF-SCF
_CPUSTEP= 0.7000000000000001E-01
_SYSSTEP= 0.9999999999999995E-02
_WALLSTEP= 0.9000000000000000E-01
!DFSCF=  0.000000000000000    
!SCSGRD=  0.000000000000000    
_CARTESIAN=TRUE
_CPUTOT= 0.2900000000000000    
_CPUSORT= 0.1999999999999996E-01
_SYSSORT= 0.1000000000000000E-01
_WALLSORT= 0.3000000119209290E-01
_DFTEXFAC=  1.000000000000000    
_DMX=-0.3254052344914271E-04
_DMY= 0.1103717193844247E-04
_DMZ= 0.2125884700632241E-04
_DMX_SCF=-0.3254052344914271E-04
_DMY_SCF= 0.1103717193844247E-04
_DMZ_SCF= 0.2125884700632241E-04
_HOMO=  21.10000000000000    
_EHOMO=-0.2834713858436562    
_LUMO=  22.10000000000000    
_ELUMO= 0.2712425593564363    
_ENERGY= -227.8913016594885    
_ENERGY_METHOD=HF
_ENERGY_BASIS=STO-3G
_GEOMETRY_METHOD=
_GEOMETRY_BASIS=
_ENUC=  204.8715622548217    
_GRADEXFAC=  9999.000000000000    
_GRADMETHOD=  1.000000000000000    
_NMRMETHOD=  0.000000000000000    
_NMRMAGNET=  0.000000000000000    
!GRID_FREEZE= -1.000000000000000    
_ITERATIONS=  18.00000000000000    
_LASTNELEC=  42.00000000000000    
_LASTSPIN=  0.000000000000000    
_LASTSYM=  1.000000000000000    
_MPP_PROG=  0.000000000000000    
_MSNSTATES=  0.000000000000000    
_RS2PHASE=  0.000000000000000    
_IPROC_MPP=  0.000000000000000    
_IPROC_MPPX=  0.000000000000000    
_NPROC_MPP=  1.000000000000000    
_NPROC_MPPX=  1.000000000000000    
_NPROC_SMP=  1.000000000000000    
_NUMSTEP=  0.000000000000000    
_ORBITAL=  2100.200000000000    
_PI=  3.141592653589793    
_SEIG_MIN= 0.1660287509321695    
_SEWPROP=TRUE
_STATUS=  1.000000000000000    
_SYSTOT= 0.3000000000000000E-01
_VERSION=  2020001.000000000    
_WALLTOT= 0.3400000000000000    
_DATE=20-Jan-24
_LASTORB=RHF
_OUTPUT=/home/heinz/PhD/calculations/wf_generation/SM555_PBE0/test/test.out
_PGROUP=C1
_TIME=21:38:29
_LIBMOL=/share/apps/molpro2020/lib/
_VIGRDC=  0.000000000000000    
!VIBCNT=  0.000000000000000    
!RGHFCNT=  0.000000000000000    
!SURFREC=  0.000000000000000    
!XSURFREC=  0.000000000000000    
!XPOLYREC=  0.000000000000000    
!ROTREC=  0.000000000000000    
!POLYREC=  0.000000000000000    
!DIPREC=  0.000000000000000    
!DIP4DREC=  0.000000000000000    
!DIPROT=  0.000000000000000    
!DIP4DROT=  0.000000000000000    
!PTREC=  0.000000000000000    
!PT4DREC=  0.000000000000000    
!VSCFREC=  0.000000000000000    
!VCIREC=  0.000000000000000    
!PVCIREC=  0.000000000000000    
!VMP2REC=  0.000000000000000    
!VMCSCFREC=  0.000000000000000    
!VMRCIREC=  0.000000000000000    
!VIBSTATEREC=  0.000000000000000    
!VIBSTATECNT=  0.000000000000000    
!VIBINFO=  0.000000000000000    
!GAREC=  0.000000000000000    
!SCFORB=  21002.00000000000    
!SCORE=  0.000000000000000    
!NEWMOL= -1.000000000000000    
!NEWSYM= -1.000000000000000    
_SLFILES=slscratch
_NGSSTO=  9.000000000000000    
_SIN=SIN
_COS=COS
_TAN=TAN
_ACOS=ACOS
_ASIN=ASIN
_ATAN=ATAN
_COSH=COSH
_SINH=SINH
_TANH=TANH
_ABS=ABS
_MOD=MOD
_ERF=ERF
_REFC=REFC
_ERFC=ERFC
_HYPOT=HYPOT
_J0=J0
_J1=J1
_JN=JN
_GAMMA=GAMMA
_LGAMMA=LGAMMA
_Y0=Y0
_Y1=Y1
_YN=YN
_EXP=EXP
_LOG=LOG
_LOG10=LOG10
_SQRT=SQRT
_INT=INT
_NINT=NINT
_MAX=MAX
_MIN=MIN
_COSMO=  0.000000000000000    
_COSMOIT=  0.000000000000000    
_COSMOES=  0.000000000000000    
_COSMOEDS=  0.000000000000000    
_COSMOEC=  0.000000000000000    
_COSMOEDCORR=  0.000000000000000    
_FEPSI=  1.000000000000000    
_SL_IsMM=  0.000000000000000    
_SL_NSYM=  1.000000000000000    
_SL_System_BitSw=  0.000000000000000    
_SL_Unique_atoms=  0.000000000000000    
_SL_GRAD=  0.000000000000000    
_SL_MAXUPD_Hess=  5.000000000000000    
_SL_N_PRINT_COD=  5.000000000000000    
_SL_PRINT_CODES=  0.000000000000000    
_SL_BasType=  0.000000000000000    
_SL_Energy_Pred=  0.000000000000000    
_SL_New_Coords=  0.000000000000000    
_SL_Total_Nuclea=  0.000000000000000    
_SL_Highest_Mltp=  0.000000000000000    
_SL_Ref_Geom=  0.000000000000000    
_SL_Symmetry_ope=  1.000000000000000    
_SL_agrad=  0.000000000000000    
_SL_GrdMax=  0.000000000000000    
_SL_GrdNorm=  0.000000000000000    
_SL_GrdRMS=  0.000000000000000    
_SL_Hss_Q=  0.000000000000000    
_SL_Hss_X=  0.000000000000000    
_SL_BMxOld=  0.000000000000000    
_SL_KtB=  0.000000000000000    
_SL_TROld=  0.000000000000000    
_SL_No_of_Intern=  0.000000000000000    
_SL_Hess=  0.000000000000000    
_SL_K=  0.000000000000000    
!LATTICE= -1.000000000000000    
!NEWLATTICE=  0.000000000000000    
!LATGRAD_VAR=FALSE
!SEW_LATTICE=  1.000000000000000    
!AIC_ONEEL=  0.000000000000000    
!LOCAL=  0.000000000000000    
!SAVEDOM= -1.000000000000000    
!RESTDOM= -1.000000000000000    
!SAVEDOM_HF= -1.000000000000000    
!RESTDOM_HF= -1.000000000000000    
!HESSREC=  0.000000000000000    
!FREQREC=  0.000000000000000    
!NMODREC=  0.000000000000000    
!GTASKS=  0.000000000000000    
!HTASKS=  0.000000000000000    
!SAVEDOM_EOM= -1.000000000000000    
!RESTDOM_EOM= -1.000000000000000    
!GRADSTATE= -1.000000000000000    
!THRCHG= 0.1000000000000000    
!DEBUG= -1.000000000000000    
!CFIT_CPHF=  0.000000000000000    
!RDOMAUX_CPHF=  3.000000000000000    
!THRAO_CPHF= 0.1000000000000000E-09
!THRMO_CPHF= 0.1000000000000000E-08
!THROV_CPHF= 0.1000000000000000E-11
!THRSW_CPHF= 0.1000000000000000E-09
!THRPROD_CPHF= 0.1000000000000000E-08
!THRAOPR_CPHF= 0.1000000000000000E-11
!CFIT_SCFGRD=  0.000000000000000    
!RDOMAUX_SCFGRD=  7.000000000000000    
!THRAO_SCFGRD= 0.1000000000000000E-09
!THRMO_SCFGRD= 0.1000000000000000E-08
!THROV_SCFGRD= 0.1000000000000000E-11
!THRSW_SCFGRD= 0.1000000000000000E-09
!THRPROD_SCFGRD= 0.1000000000000000E-08
!THRAOPR_SCFGRD= 0.1000000000000000E-11
!LOCFIT_SCF=  0.000000000000000    
!LOCFIT_MP2= -1.000000000000000    
_RIDOM=  0.000000000000000    
!CC2_METHOD=  0.000000000000000    
_BASIS2006=FALSE
_SVDDEL= -1.000000000000000    
_SVDDELA= -1.000000000000000    
_SVDDELP= -1.000000000000000    
_SVDDELF= -1.000000000000000    
_SVDDELS= -1.000000000000000    
_SVDDEL_ABS= -1.000000000000000    
_SVDDELA_ABS= -1.000000000000000    
_SVDDELP_ABS= -1.000000000000000    
_SVDDELF_ABS= -1.000000000000000    
_SVDDELS_ABS= -1.000000000000000    
_MAXBASIS=  0.000000000000000    
!OPT_CONICAL=  0.000000000000000    
!CLEARSP_JGRID=  0.000000000000000    
_GRDHYBR=  0.000000000000000    
_STATEGRAD=  1.000000000000000    
_4EXT_NDISKS=  1.000000000000000    
!EMBEDFLAG=  1.000000000000000    
!EMBED=FALSE
!EMBED_F12=FALSE
!EMBEDNUC=  0.000000000000000    
_EMBEDENERGY=  0.000000000000000    
!EMBED_DFC=FALSE
!NUM_VOIDS=  0.000000000000000    
_IBODY=  0.000000000000000    
_EMBE_CORR=  0.000000000000000    
!EMBED_PROJ=FALSE
!EMB_PROJ_ZMU=  1000000.000000000    
!CORRECTION_HF=  0.000000000000000    
!EMBED_AORB=  0.000000000000000    
!EMBED_NACORR=  0.000000000000000    
!EMBED_MP2=FALSE
!EMBED_TRUNC_PERTURBATION=FALSE
!EMBED_FROZEN=  0.000000000000000    
!EMBED_ACTIVE=  0.000000000000000    
_CHANGE_BASIS=FALSE
_RESTORE_BASIS=FALSE
_FIX_EMBED_GUESS=FALSE
_EMBED_SCF=FALSE
_HUZINAGA_T=FALSE
_HUZINAGA_F=FALSE
_HUZINAGA=FALSE
_HUZINAGA_CORRECT=FALSE
!FASTLATGRAD=  1.000000000000000    
!FASTVLAMBDA= -1.000000000000000    
!IFORCE= -1.000000000000000    
!USESYM= -1.000000000000000    
_SINDEX=  0.000000000000000    
_AVDOM_OSV=  0.000000000000000    
_AVDOM_PNO=  0.000000000000000    
_AVDOM_PAO=  0.000000000000000    
_AVDOM_LMO=  0.000000000000000    
_CC2OSV_FLAG=  0.000000000000000    
_EOMCCSD_CONV=FALSE
_TMADC2_FLAG=FALSE
_PROPADC2_FLAG=FALSE
_LEN_VirQ=  0.000000000000000    
_GRDCC2LR_FLAG=FALSE
_GRDADC2_FLAG=FALSE
_RO_VGLOBAL=  0.000000000000000    
_OPT=FALSE
_FREQ=FALSE
_HESS=FALSE
_CMRCC_callName=EMPTY
_CMRCC_callCount=  0.000000000000000    
_GECCO_CIROOT=  1.000000000000000    
_SYM_CATION=  1.000000000000000    
GX1=-0.1537231523630000E-01
GY1=-0.2850966336000000E-04
GZ1=-0.1094445336455000E-01
GX2=-0.2005457498486000E-01
GY2=-0.2236301977000000E-04
GZ2=  1.373580799295189    
GX3=  1.176640149777339    
GY3=-0.5738148239999998E-05
GZ3=  2.069945851316470    
GX4=  2.378026459940709    
GY4= 0.6342005459999998E-05
GZ4=  1.381621669571540    
GX5=  2.382581693607090    
GY5= 0.9668114270000000E-05
GZ5=-0.2957315554170000E-02
GX6=  1.185867427080560    
GY6=-0.7267761680000000E-05
GZ6=-0.6993923617334200    
GX7=  1.189830344238990    
GY7=-0.5435147900000000E-06
GZ7= -1.779838845825410    
GX8=  3.320190027706110    
GY8= 0.2145407553000000E-04
GZ8=-0.5399128582619900    
GX9=  3.312008964593530    
GY9= 0.1245756087000000E-04
GZ9=  1.924822213404590    
GX10=  1.172855362314240    
GY10=-0.7144743660000000E-05
GZ10=  3.150389592522510    
GX11=-0.9577135149180800    
GY11=-0.2982054418000000E-04
GZ11=  1.910448389692919    
GX12=-0.9500926892860098    
GY12= 0.4907037746000000E-04
GZ12=-0.5536768206700000    
[Atoms] Angs
C     1    6        -0.0153723152       -0.0000285097       -0.0109444534
C     2    6        -0.0200545750       -0.0000223630        1.3735807993
C     3    6         1.1766401498       -0.0000057381        2.0699458513
C     4    6         2.3780264599        0.0000063420        1.3816216696
C     5    6         2.3825816936        0.0000096681       -0.0029573156
C     6    6         1.1858674271       -0.0000072678       -0.6993923617
H     7    1         1.1898303442       -0.0000005435       -1.7798388458
H     8    1         3.3201900277        0.0000214541       -0.5399128583
H     9    1         3.3120089646        0.0000124576        1.9248222134
H    10    1         1.1728553623       -0.0000071447        3.1503895925
H    11    1        -0.9577135149       -0.0000298205        1.9104483897
H    12    1        -0.9500926893        0.0000490704       -0.5536768207
[GTO]
   1 0
 s    3  1.00
  0.7161683700D+02  0.1543289700D+00
  0.1304509600D+02  0.5353281400D+00
  0.3530512200D+01  0.4446345400D+00
 s    3  1.00
  0.2941249400D+01 -0.9996723008D-01
  0.6834831000D+00  0.3995128303D+00
  0.2222899000D+00  0.7001154705D+00
 p    3  1.00
  0.2941249400D+01  0.1559162721D+00
  0.6834831000D+00  0.6076837282D+00
  0.2222899000D+00  0.3919573953D+00
  
   2 0
 s    3  1.00
  0.7161683700D+02  0.1543289700D+00
  0.1304509600D+02  0.5353281400D+00
  0.3530512200D+01  0.4446345400D+00
 s    3  1.00
  0.2941249400D+01 -0.9996723008D-01
  0.6834831000D+00  0.3995128303D+00
  0.2222899000D+00  0.7001154705D+00
 p    3  1.00
  0.2941249400D+01  0.1559162721D+00
  0.6834831000D+00  0.6076837282D+00
  0.2222899000D+00  0.3919573953D+00
  
   3 0
 s    3  1.00
  0.7161683700D+02  0.1543289700D+00
  0.1304509600D+02  0.5353281400D+00
  0.3530512200D+01  0.4446345400D+00
 s    3  1.00
  0.2941249400D+01 -0.9996723008D-01
  0.6834831000D+00  0.3995128303D+00
  0.2222899000D+00  0.7001154705D+00
 p    3  1.00
  0.2941249400D+01  0.1559162721D+00
  0.6834831000D+00  0.6076837282D+00
  0.2222899000D+00  0.3919573953D+00
  
   4 0
 s    3  1.00
  0.7161683700D+02  0.1543289700D+00
  0.1304509600D+02  0.5353281400D+00
  0.3530512200D+01  0.4446345400D+00
 s    3  1.00
  0.2941249400D+01 -0.9996723008D-01
  0.6834831000D+00  0.3995128303D+00
  0.2222899000D+00  0.7001154705D+00
 p    3  1.00
  0.2941249400D+01  0.1559162721D+00
  0.6834831000D+00  0.6076837282D+00
  0.2222899000D+00  0.3919573953D+00
  
   5 0
 s    3  1.00
  0.7161683700D+02  0.1543289700D+00
  0.1304509600D+02  0.5353281400D+00
  0.3530512200D+01  0.4446345400D+00
 s    3  1.00
  0.2941249400D+01 -0.9996723008D-01
  0.6834831000D+00  0.3995128303D+00
  0.2222899000D+00  0.7001154705D+00
 p    3  1.00
  0.2941249400D+01  0.1559162721D+00
  0.6834831000D+00  0.6076837282D+00
  0.2222899000D+00  0.3919573953D+00
  
   6 0
 s    3  1.00
  0.7161683700D+02  0.1543289700D+00
  0.1304509600D+02  0.5353281400D+00
  0.3530512200D+01  0.4446345400D+00
 s    3  1.00
  0.2941249400D+01 -0.9996723008D-01
  0.6834831000D+00  0.3995128303D+00
  0.2222899000D+00  0.7001154705D+00
 p    3  1.00
  0.2941249400D+01  0.1559162721D+00
  0.6834831000D+00  0.6076837282D+00
  0.2222899000D+00  0.3919573953D+00
  
   7 0
 s    3  1.00
  0.3425250900D+01  0.1543289707D+00
  0.6239137300D+00  0.5353281424D+00
  0.1688554000D+00  0.4446345420D+00
  
   8 0
 s    3  1.00
  0.3425250900D+01  0.1543289707D+00
  0.6239137300D+00  0.5353281424D+00
  0.1688554000D+00  0.4446345420D+00
  
   9 0
 s    3  1.00
  0.3425250900D+01  0.1543289707D+00
  0.6239137300D+00  0.5353281424D+00
  0.1688554000D+00  0.4446345420D+00
  
  10 0
 s    3  1.00
  0.3425250900D+01  0.1543289707D+00
  0.6239137300D+00  0.5353281424D+00
  0.1688554000D+00  0.4446345420D+00
  
  11 0
 s    3  1.00
  0.3425250900D+01  0.1543289707D+00
  0.6239137300D+00  0.5353281424D+00
  0.1688554000D+00  0.4446345420D+00
  
  12 0
 s    3  1.00
  0.3425250900D+01  0.1543289707D+00
  0.6239137300D+00  0.5353281424D+00
  0.1688554000D+00  0.4446345420D+00


[MO]
 Sym=      1.1
 Ene=     -11.0293
 Spin= Alpha
 Occup=    2.000000
1 0.53487754673740
2 0.014550975108705
3 -0.002106506804618
4 0.000000163933753
5 0.001675243818780
6 0.029925806473914
7 -0.000378904983134
8 0.001131826916180
9 0.000000009672239
10 0.003106908314090
11 -0.31902834068861
12 -0.010591473966494
13 0.000781079594095
14 0.000000015469151
15 0.000245778911536
16 -0.17531224425083
17 -0.006284162133101
18 -0.000907197244022
19 -0.000000013268081
20 0.002242703270147
21 0.30898592125262
22 0.007737017764534
23 0.002358331457459
24 0.000000027355298
25 0.002437403054450
26 0.68573106018230
27 0.019175522394186
28 0.000867455582048
29 0.000000001580765
30 -0.001052706421424
31 -0.004628863739873
32 -0.002110528305631
33 0.001110783089265
34 0.002070391643219
35 -0.000253654999833
36 -0.003617181742011
 Sym=      2.1
 Ene=     -11.0293
 Spin= Alpha
 Occup=    2.000000
1 -0.22245574547425
2 -0.008231167113046
3 -0.001131490894362
4 -0.000000095156307
5 0.000928200282843
6 -0.16884393459627
7 -0.006400316671266
8 -0.001340979385838
9 -0.000000014248264
10 -0.001373589796615
11 0.26389177251554
12 0.006338203414216
13 -0.003113982712275
14 -0.000000041312821
15 0.000845789569973
16 0.64681622537039
17 0.017481060778217
18 0.000378671606525
19 -0.000000001689728
20 0.001786801681822
21 0.61887686978441
22 0.016780201237369
23 0.000147674891817
24 -0.000000003322788
25 -0.002088267860069
26 0.19053082621524
27 0.004236514023913
28 -0.003209781262875
29 -0.000000042426077
30 -0.000785354889079
31 -0.001341500385683
32 -0.004193967322991
33 -0.004377564728163
34 -0.001828862286900
35 0.001054176714698
36 0.001416463801271
 Sym=      3.1
 Ene=     -11.0293
 Spin= Alpha
 Occup=    2.000000
1 0.41627550736088
2 0.010601638053493
3 0.000270101212129
4 0.000000152766658
5 -0.002676351544139
6 0.65555435333671
7 0.016984984477500
8 -0.001635146346086
9 -0.000000036163568
10 0.000206135985825
11 0.58214409267500
12 0.015501930919316
13 0.001814651578178
14 0.000000016126020
15 0.001258810894988
16 0.17782396989220
17 0.003232959846163
18 0.002205312793807
19 0.000000022862106
20 -0.001772103297178
21 -0.10877423126844
22 -0.005233670055928
23 0.000356697474861
24 0.000000008032201
25 -0.000931671700528
26 0.012485828801470
27 -0.001641693040343
28 0.002010056076355
29 0.000000021117256
30 -0.000867118059581
31 -0.000171844667889
32 0.000635515415822
33 -0.001273755285833
34 -0.003976902546038
35 -0.004449676059694
36 -0.002869791397535
 Sym=      4.1
 Ene=     -11.0289
 Spin= Alpha
 Occup=    2.000000
1 0.44356535939828
2 0.019594489457477
3 0.002663974114240
4 0.000000218964581
5 -0.001475239645441
6 0.10510307793931
7 0.004433667344454
8 0.002168806364387
9 0.000000024643388
10 0.003185757764686
11 -0.52376951814080
12 -0.023041448432913
13 -0.001243519677010
14 0.000000002697937
15 0.001812707605415
16 0.41707622017411
17 0.018072842395200
18 -0.002507482140311
19 -0.000000028658854
20 0.001617166740135
21 0.14595250843229
22 0.006380220195422
23 -0.002342557714395
24 -0.000000030508750
25 -0.003100169510689
26 -0.55336282979371
27 -0.024655745025184
28 0.001189065527255
29 0.000000011382779
30 -0.002016179911213
31 0.003872767484632
32 -0.001023062977767
33 -0.002910633476056
34 0.003657017485908
35 -0.000732018087004
36 -0.003104082703952
 Sym=      5.1
 Ene=     -11.0289
 Spin= Alpha
 Occup=    2.000000
1 -0.35568475821788
2 -0.015937795537307
3 0.000346758962474
4 -0.000000144586741
5 -0.003232855398954
6 0.57102008263120
7 0.024737785378825
8 0.001219530031426
9 0.000000011652844
10 -0.001604191438553
11 -0.15847478338706
12 -0.007087977377508
13 0.003835495715273
14 0.000000050661929
15 0.000602152653299
16 -0.39608565624462
17 -0.017521816467503
18 -0.000224396421577
19 -0.000000006890466
20 0.003190968435349
21 0.56380793122996
22 0.024914691282528
23 -0.001285835942058
24 -0.000000034266112
25 0.001740579572063
26 -0.17648031505781
27 -0.008010010824450
28 -0.003652880255083
29 -0.000000046056767
30 -0.000706403429556
31 0.001235867247812
32 -0.003947436450795
33 0.002767418517210
34 0.001105916770124
35 -0.003985697081749
36 0.002486752115660
 Sym=      6.1
 Ene=     -11.0287
 Spin= Alpha
 Occup=    2.000000
1 -0.39015955340205
2 -0.020675856192891
3 -0.002034722085758
4 -0.000000202992086
5 -0.001453972716274
6 0.43368816538520
7 0.022280539742269
8 0.002259463803170
9 0.000000029607673
10 -0.001166948811306
11 -0.41784347086411
12 -0.021993629790864
13 0.000061573187713
14 0.000000017294091
15 0.002614742419593
16 0.41567806232174
17 0.021640967326407
18 -0.002231182685569
19 -0.000000017626306
20 -0.001183365062191
21 -0.39351941592284
22 -0.020668839243870
23 0.002048320717691
24 0.000000040608604
25 -0.001360567151229
26 0.37458090693270
27 0.019928087036630
28 0.000004141408452
29 0.000000006520662
30 0.002410509482948
31 -0.002723237530155
32 0.002850465963943
33 -0.003008617296624
34 0.003026090100895
35 -0.003131109899700
36 0.002828780425140
 Sym=      7.1
 Ene=      -1.0973
 Spin= Alpha
 Occup=    2.000000
1 -0.10495841805695
2 0.26312592835555
3 0.054464210391894
4 0.000002465497569
5 0.031710738879037
6 -0.10496608217921
7 0.26313602364541
8 0.054665318358510
9 0.000000707899807
10 -0.031328821680764
11 -0.10495269196859
12 0.26311273617412
13 0.000198342208648
14 -0.000000229211358
15 -0.063006585128930
16 -0.10494688455412
17 0.26309774887927
18 -0.054452034508088
19 -0.000000538166210
20 -0.031683123685456
21 -0.10495138617166
22 0.26310550552693
23 -0.054655428096050
24 -0.000000923028147
25 0.031312412883018
26 -0.10495041098166
27 0.26311207431096
28 -0.000210579449099
29 0.000000066495888
30 0.063019179144386
31 0.046339387840265
32 0.046339339902743
33 0.046338243252947
34 0.046340966104640
35 0.046345570869061
36 0.046308482609184
 Sym=      8.1
 Ene=      -0.9593
 Spin= Alpha
 Occup=    2.000000
1 -0.014891674218978
2 0.039893905055183
3 -0.063382887567921
4 -0.000000401242835
5 0.11469667834458
6 -0.13407263820373
7 0.35911597169798
8 0.049563780758975
9 0.000000589173883
10 0.033747863752888
11 -0.11917554803872
12 0.31922579264444
13 -0.076968689473948
14 -0.000001204565757
15 -0.023581439868624
16 0.014894706111384
17 -0.039899296719303
18 -0.063346017927332
19 -0.000000837918593
20 0.11466830998379
21 0.13407083657773
22 -0.35912302147893
23 0.049564788757882
24 0.000000897425317
25 0.033769102589301
26 0.11919392499372
27 -0.31927566823664
28 -0.076957979845966
29 -0.000000997511223
30 -0.023591892282019
31 -0.087702720036003
32 -0.098643653101731
33 -0.010965116185611
34 0.087686893373619
35 0.098642106566273
36 0.010980579706698
 Sym=      9.1
 Ene=      -0.9593
 Spin= Alpha
 Occup=    2.000000
1 -0.14620065211239
2 0.39162726118811
3 0.031461386380056
4 0.000004389386844
5 0.002924666993343
6 -0.060223437300994
7 0.16131056294917
8 -0.049497448291752
9 -0.000000423427104
10 -0.11008923767607
11 0.086013482467358
12 -0.23039940242239
13 -0.10682180895928
14 -0.000001000579076
15 0.016473234194806
16 0.14623173525306
17 -0.39170109955602
18 0.031428939515682
19 0.000000187694223
20 0.002857149242385
21 0.060207364751909
22 -0.16127946468682
23 -0.049511191087939
24 -0.000000331567729
25 -0.11009279494563
26 -0.086014052304820
27 0.23040181640438
28 -0.10678407156254
29 -0.000001105083843
30 0.016503799499954
31 0.063273501315975
32 -0.044308715812490
33 -0.10760084978854
34 -0.063286442280086
35 0.044319636974265
36 0.10749455300400
 Sym=     10.1
 Ene=      -0.7700
 Spin= Alpha
 Occup=    2.000000
1 0.063252204245413
2 -0.18506748728416
3 0.13775657371802
4 -0.000002453286291
5 -0.14490808192324
6 0.050778993650810
7 -0.14856011194617
8 0.13620926441148
9 0.000001135759272
10 0.16311265928892
11 -0.11406436207524
12 0.33372775672812
13 -0.015029695682199
14 -0.000000648343923
15 0.083275782548982
16 0.063259458189935
17 -0.18507973314330
18 -0.13775050409537
19 -0.000001569548379
20 0.14485404507739
21 0.050792090716869
22 -0.14861039876204
23 -0.13618849661821
24 -0.000001627299871
25 -0.16306172667116
26 -0.11404363558207
27 0.33366037803118
28 0.015000948237275
29 0.000000123829736
30 -0.083261179726172
31 0.17656517685736
32 -0.078653288059270
33 -0.097956442606119
34 0.17659499038397
35 -0.078644079142102
36 -0.097955757375578
 Sym=     11.1
 Ene=      -0.7699
 Spin= Alpha
 Occup=    2.000000
1 -0.095184599226617
2 0.27852002667743
3 0.005050465801468
4 0.000006398863623
5 -0.14660557305151
6 0.10235457203565
7 -0.29948512824314
8 0.013336216091370
9 0.000000703829800
10 -0.12732444778260
11 -0.007176642122132
12 0.020997658436909
13 0.23307905541639
14 0.000003011383372
15 0.005988231544697
16 -0.095162592906530
17 0.27843935380761
18 -0.004919052736216
19 -0.000000368676075
20 0.14672607138165
21 0.10239630360663
22 -0.29961568508501
23 -0.013410599596210
24 0.000000188651613
25 0.12726019028443
26 -0.007239413472795
27 0.021181985659775
28 -0.23311044115520
29 -0.000002213050150
30 -0.005949965497914
31 0.011111195354862
32 -0.15859985264419
33 0.14735318434488
34 0.011079106587036
35 -0.15853048798847
36 0.14718960359956
 Sym=     12.1
 Ene=      -0.6672
 Spin= Alpha
 Occup=    2.000000
1 -0.009435807240752
2 0.038652925395595
3 -0.20216714767962
4 0.000006247188805
5 -0.11751813942541
6 -0.009409962416518
7 0.038546002863446
8 -0.20311415263387
9 -0.000000280309111
10 0.11614203091809
11 -0.009395514933243
12 0.038512572736498
13 -0.000651737358610
14 0.000000927221049
15 0.23397834376902
16 -0.009468830673750
17 0.038735717255002
18 0.20230444254912
19 0.000002409909117
20 0.11778829551909
21 -0.009342351106202
22 0.038334233562049
23 0.20294886533813
24 0.000003671636912
25 -0.11627051573500
26 -0.009480230474325
27 0.038787543439589
28 0.000724471550209
29 0.000002511076865
30 -0.23404947215020
31 0.17463723216365
32 0.17434887779976
33 0.17465767107202
34 0.17447649667181
35 0.17449227396141
36 0.17441013123541
 Sym=     13.1
 Ene=      -0.5941
 Spin= Alpha
 Occup=    2.000000
1 0.065164874163583
2 -0.21833695635468
3 0.14234910983160
4 -0.000013076343455
5 0.082764759024451
6 -0.065139185813862
7 0.21823564727911
8 -0.14289413264807
9 -0.000005775190567
10 0.082081833254072
11 0.065098480623313
12 -0.21810194558635
13 0.000473965841601
14 -0.000002533475972
15 -0.16522891320414
16 -0.065120965091921
17 0.21816370544649
18 0.14224568688157
19 -0.000000817443164
20 0.082731315743161
21 0.065106246903654
22 -0.21813242855912
23 -0.14316597942112
24 -0.000004476460469
25 0.082040272137337
26 -0.065084863106394
27 0.21803980657377
28 0.000707626585727
29 -0.000003687153389
30 -0.16494034277445
31 0.23246381635861
32 -0.23253917796647
33 0.23220917261773
34 -0.23271026918525
35 0.23242392955759
36 -0.23230472715182
 Sym=     14.1
 Ene=      -0.5585
 Spin= Alpha
 Occup=    2.000000
1 0.000098977738935
2 -0.000327644667311
3 -0.16762959838949
4 -0.000002060275774
5 0.28685544022040
6 0.000016160836650
7 -0.000061669078228
8 -0.16504794230225
9 -0.000002476489694
10 -0.28794604208178
11 -0.000041919743726
12 0.000132066871744
13 0.33226260130136
14 0.000003787738217
15 0.000506823983060
16 -0.000058922582974
17 0.000188282494153
18 -0.16768147671398
19 -0.000002148855067
20 0.28676601656975
21 -0.000016606902146
22 0.000053563883738
23 -0.16528313205580
24 -0.000001661599518
25 -0.28792419945234
26 0.000041329592857
27 -0.000123981744531
28 0.33240267797397
29 0.000004678109453
30 0.000603028853447
31 0.000436993024997
32 -0.000249644415070
33 -0.000555215712639
34 -0.000474875773596
35 0.000096099453043
36 0.000565157558275
 Sym=     15.1
 Ene=      -0.5370
 Spin= Alpha
 Occup=    2.000000
1 -0.009812807577362
2 0.030562972582686
3 0.16538806418039
4 -0.000008048685428
5 -0.012570550896276
6 0.016548235227592
7 -0.051596857177203
8 -0.23912188614896
9 -0.000006851695344
10 0.044765889463628
11 0.026483754418328
12 -0.082629867237597
13 0.013929830452367
14 -0.000002745906399
15 0.36603959684578
16 0.009833352855188
17 -0.030654854483571
18 0.16532864402873
19 -0.000001747079298
20 -0.012433903494614
21 -0.016573288536311
22 0.051695986840156
23 -0.23911169044421
24 -0.000007572150271
25 0.044592377516756
26 -0.026470236280680
27 0.082573783727274
28 0.013960513350784
29 -0.000007031543452
30 0.36623107346799
31 -0.27918743156229
32 -0.17514384101793
33 0.10427009289865
34 0.27900221574258
35 0.17527148546386
36 -0.10428052353288
 Sym=     16.1
 Ene=      -0.5370
 Spin= Alpha
 Occup=    2.000000
1 -0.024811495437420
2 0.077362605284601
3 0.27823121131148
4 -0.000021090566921
5 0.20579625718870
6 -0.021033578894069
7 0.065642513249369
8 0.22032142678572
9 -0.000010442741695
10 -0.19927974351805
11 0.003913521235601
12 -0.012229624727122
13 -0.10021531152033
14 -0.000009897142572
15 0.053158451717996
16 0.024838483659078
17 -0.077482549187245
18 0.27832961577263
19 -0.000005332654563
20 0.20596216081257
21 0.021008114764420
22 -0.065557807400931
23 0.22007118948826
24 -0.000005083925478
25 -0.19950991275131
26 -0.003895740065103
27 0.012135443488320
28 -0.099931080316149
29 -0.000013341674207
30 0.053415767259755
31 -0.040965796604799
32 0.22118375524742
33 0.26250196082803
34 0.040708332258353
35 -0.22122403282587
36 -0.26238473490868
 Sym=     17.1
 Ene=      -0.4623
 Spin= Alpha
 Occup=    2.000000
1 0.000003583534186
2 -0.000013353634055
3 -0.000002286564528
4 0.33308872363026
5 0.000001351630836
6 -0.000002174944435
7 0.000006811982152
8 0.000025127097343
9 0.33308134674745
10 0.000008450198359
11 0.000001039395020
12 -0.000004278676978
13 -0.000033945648297
14 0.33305224861449
15 -0.000008675652670
16 0.000001365162817
17 -0.000003458225908
18 0.000033292157550
19 0.33304018519885
20 0.000021329464512
21 0.000000976982949
22 -0.000004106990245
23 -0.000027628131633
24 0.33304864018743
25 -0.000020657562783
26 -0.000002144105592
27 0.000006676113243
28 0.000018045370110
29 0.33308012443032
30 0.000021856527972
31 -0.000015696444861
32 -0.000012268292163
33 0.000040774162916
34 -0.000011216335288
35 -0.000015671042855
36 0.000012562159156
 Sym=     18.1
 Ene=      -0.4344
 Spin= Alpha
 Occup=    2.000000
1 -0.001972853173861
2 0.003927699545193
3 0.22575452591441
4 0.000005205669153
5 -0.24093987719498
6 0.007268219119631
7 -0.014486660598480
8 -0.19512469549022
9 0.000007731530297
10 0.21008113264531
11 -0.005328616316674
12 0.010685616278951
13 0.23721574192880
14 0.000013942908766
15 -0.19891561800079
16 -0.001971235225026
17 0.003934420733268
18 -0.22595370838565
19 0.000009015122795
20 0.24098435651660
21 0.007283538142935
22 -0.014556190705349
23 0.19516793923371
24 0.000012741325490
25 -0.21018832017815
26 -0.005304610390915
27 0.010584645224144
28 -0.23712421269494
29 0.000001694915468
30 0.19871677108641
31 -0.21082533736869
32 0.28926732129988
33 -0.078339311659650
34 -0.21096499270717
35 0.28919705679600
36 -0.078302520340867
 Sym=     19.1
 Ene=      -0.4343
 Spin= Alpha
 Occup=    2.000000
1 0.007267458281504
2 -0.014476862081948
3 -0.19258381096561
4 -0.000010422812454
5 -0.21301696802046
6 -0.001897227585274
7 0.003732386078287
8 0.22307031295558
9 -0.000023150652025
10 0.24385635664270
11 -0.005366912552981