[Molden Format]
[Title]
 Molden file created by orca_2mkl for BaseName=H

[Atoms] AU
N    1   7          2.9872790725         1.3279105543        -0.4306685859 
C    2   6          3.2242507297        -1.3934840512        -0.4017557761 
N    3   7          1.0091137555        -2.9613898245        -0.6619710647 
C    4   6          0.6105705139         2.5700275421         0.0517784961 
C    5   6         -1.5350245386         0.8603923088         0.1543906251 
C    6   6         -1.3165721975        -1.7616027020        -0.1250998701 
N    7   7         -4.1358546167         1.3209185676         0.5259107831 
C    8   6         -5.3879871530        -0.9836024527         0.4784786571 
N    9   7         -3.6919579478        -2.8701160522         0.0805023333 
C   10   6          1.2411721248        -5.7209568978        -0.3165291274 
O   11   8          5.3169334504        -2.3731180790        -0.3199306345 
O   12   8          0.5383829756         4.8649109592         0.3006554279 
C   13   6         -5.3093745459         3.7853104189         0.9509101906 
C   14   6          5.3481139316         2.8353450913        -0.3718981032 
H   15   1         -7.4211435005        -1.2825571271         0.7109149716 
H   16   1          2.8011410483        -6.4337615955        -1.4862696043 
H   17   1         -0.5117378371        -6.6525918819        -0.9199186820 
H   18   1          1.6189283789        -6.2342065158         1.6606913265 
H   19   1         -4.5585863529         5.1925894708        -0.3811577612 
H   20   1         -4.9212247980         4.4637221009         2.8763521484 
H   21   1         -7.3648296617         3.6554862335         0.6982538065 
H   22   1          6.7952662050         1.9526540142        -1.5711183077 
H   23   1          6.0941778093         2.9840665381         1.5599689236 
H   24   1          4.9947351446         4.7488817745        -1.0947183494 
[GTO]
  1 0
s   5 1.0 
     1712.8415853000        -1.0337585405
      257.6481267700        -1.8620740805
       58.4582458530        -2.7290401880
       16.1983679050        -2.6956734544
        5.0052600809        -1.0640914367
s   1 1.0 
        0.5873185657         0.4781513534
s   1 1.0 
        0.1876459225         0.2031956662
p   3 1.0 
       13.5714702330        -2.1850243557
        2.9257372874        -1.7466999024
        0.7992775075        -0.8114650516
p   1 1.0 
        0.2195434803         0.2142105067
d   1 1.0 
        1.0000000000         2.8508218814

  2 0
s   5 1.0 
     1238.4016938000         0.8208956682
      186.2900499200         1.4766449896
       42.2511763460         2.1526124058
       11.6765579320         2.1081722461
        3.5930506482         0.8290999933
s   1 1.0 
        0.4024514736         0.3601183351
s   1 1.0 
        0.1309018267         0.1551027052
p   3 1.0 
        9.4680970621         1.3467645142
        2.0103545142         1.0678070931
        0.5477100471         0.5108735714
p   1 1.0 
        0.1526861379         0.1360471976
d   1 1.0 
        0.8000000000         1.9292013661

  3 0
s   5 1.0 
     1712.8415853000        -1.0337585405
      257.6481267700        -1.8620740805
       58.4582458530        -2.7290401880
       16.1983679050        -2.6956734544
        5.0052600809        -1.0640914367
s   1 1.0 
        0.5873185657         0.4781513534
s   1 1.0 
        0.1876459225         0.2031956662
p   3 1.0 
       13.5714702330        -2.1850243557
        2.9257372874        -1.7466999024
        0.7992775075        -0.8114650516
p   1 1.0 
        0.2195434803         0.2142105067
d   1 1.0 
        1.0000000000         2.8508218814

  4 0
s   5 1.0 
     1238.4016938000         0.8208956682
      186.2900499200         1.4766449896
       42.2511763460         2.1526124058
       11.6765579320         2.1081722461
        3.5930506482         0.8290999933
s   1 1.0 
        0.4024514736         0.3601183351
s   1 1.0 
        0.1309018267         0.1551027052
p   3 1.0 
        9.4680970621         1.3467645142
        2.0103545142         1.0678070931
        0.5477100471         0.5108735714
p   1 1.0 
        0.1526861379         0.1360471976
d   1 1.0 
        0.8000000000         1.9292013661

  5 0
s   5 1.0 
     1238.4016938000         0.8208956682
      186.2900499200         1.4766449896
       42.2511763460         2.1526124058
       11.6765579320         2.1081722461
        3.5930506482         0.8290999933
s   1 1.0 
        0.4024514736         0.3601183351
s   1 1.0 
        0.1309018267         0.1551027052
p   3 1.0 
        9.4680970621         1.3467645142
        2.0103545142         1.0678070931
        0.5477100471         0.5108735714
p   1 1.0 
        0.1526861379         0.1360471976
d   1 1.0 
        0.8000000000         1.9292013661

  6 0
s   5 1.0 
     1238.4016938000         0.8208956682
      186.2900499200         1.4766449896
       42.2511763460         2.1526124058
       11.6765579320         2.1081722461
        3.5930506482         0.8290999933
s   1 1.0 
        0.4024514736         0.3601183351
s   1 1.0 
        0.1309018267         0.1551027052
p   3 1.0 
        9.4680970621         1.3467645142
        2.0103545142         1.0678070931
        0.5477100471         0.5108735714
p   1 1.0 
        0.1526861379         0.1360471976
d   1 1.0 
        0.8000000000         1.9292013661

  7 0
s   5 1.0 
     1712.8415853000        -1.0337585405
      257.6481267700        -1.8620740805
       58.4582458530        -2.7290401880
       16.1983679050        -2.6956734544
        5.0052600809        -1.0640914367
s   1 1.0 
        0.5873185657         0.4781513534
s   1 1.0 
        0.1876459225         0.2031956662
p   3 1.0 
       13.5714702330        -2.1850243557
        2.9257372874        -1.7466999024
        0.7992775075        -0.8114650516
p   1 1.0 
        0.2195434803         0.2142105067
d   1 1.0 
        1.0000000000         2.8508218814

  8 0
s   5 1.0 
     1238.4016938000         0.8208956682
      186.2900499200         1.4766449896
       42.2511763460         2.1526124058
       11.6765579320         2.1081722461
        3.5930506482         0.8290999933
s   1 1.0 
        0.4024514736         0.3601183351
s   1 1.0 
        0.1309018267         0.1551027052
p   3 1.0 
        9.4680970621         1.3467645142
        2.0103545142         1.0678070931
        0.5477100471         0.5108735714
p   1 1.0 
        0.1526861379         0.1360471976
d   1 1.0 
        0.8000000000         1.9292013661

  9 0
s   5 1.0 
     1712.8415853000        -1.0337585405
      257.6481267700        -1.8620740805
       58.4582458530        -2.7290401880
       16.1983679050        -2.6956734544
        5.0052600809        -1.0640914367
s   1 1.0 
        0.5873185657         0.4781513534
s   1 1.0 
        0.1876459225         0.2031956662
p   3 1.0 
       13.5714702330        -2.1850243557
        2.9257372874        -1.7466999024
        0.7992775075        -0.8114650516
p   1 1.0 
        0.2195434803         0.2142105067
d   1 1.0 
        1.0000000000         2.8508218814

 10 0
s   5 1.0 
     1238.4016938000         0.8208956682
      186.2900499200         1.4766449896
       42.2511763460         2.1526124058
       11.6765579320         2.1081722461
        3.5930506482         0.8290999933
s   1 1.0 
        0.4024514736         0.3601183351
s   1 1.0 
        0.1309018267         0.1551027052
p   3 1.0 
        9.4680970621         1.3467645142
        2.0103545142         1.0678070931
        0.5477100471         0.5108735714
p   1 1.0 
        0.1526861379         0.1360471976
d   1 1.0 
        0.8000000000         1.9292013661

 11 0
s   5 1.0 
     2266.1767785000        -1.2615859742
      340.8701019100        -2.2748500410
       77.3631351670        -3.3479623295
       21.4796449400        -3.3299980531
        6.6589433124        -1.3203828288
s   1 1.0 
        0.8097597567         0.6083832301
s   1 1.0 
        0.2553077223         0.2559811911
p   3 1.0 
       17.7215043170         3.2460107647
        3.8635505440         2.5734959178
        1.0480920883         1.1208372892
p   1 1.0 
        0.2764154441         0.2856886381
d   1 1.0 
        1.2000000000         3.9222679946

 12 0
s   5 1.0 
     2266.1767785000        -1.2615859742
      340.8701019100        -2.2748500410
       77.3631351670        -3.3479623295
       21.4796449400        -3.3299980531
        6.6589433124        -1.3203828288
s   1 1.0 
        0.8097597567         0.6083832301
s   1 1.0 
        0.2553077223         0.2559811911
p   3 1.0 
       17.7215043170         3.2460107647
        3.8635505440         2.5734959178
        1.0480920883         1.1208372892
p   1 1.0 
        0.2764154441         0.2856886381
d   1 1.0 
        1.2000000000         3.9222679946

 13 0
s   5 1.0 
     1238.4016938000         0.8208956682
      186.2900499200         1.4766449896
       42.2511763460         2.1526124058
       11.6765579320         2.1081722461
        3.5930506482         0.8290999933
s   1 1.0 
        0.4024514736         0.3601183351
s   1 1.0 
        0.1309018267         0.1551027052
p   3 1.0 
        9.4680970621         1.3467645142
        2.0103545142         1.0678070931
        0.5477100471         0.5108735714
p   1 1.0 
        0.1526861379         0.1360471976
d   1 1.0 
        0.8000000000         1.9292013661

 14 0
s   5 1.0 
     1238.4016938000         0.8208956682
      186.2900499200         1.4766449896
       42.2511763460         2.1526124058
       11.6765579320         2.1081722461
        3.5930506482         0.8290999933
s   1 1.0 
        0.4024514736         0.3601183351
s   1 1.0 
        0.1309018267         0.1551027052
p   3 1.0 
        9.4680970621         1.3467645142
        2.0103545142         1.0678070931
        0.5477100471         0.5108735714
p   1 1.0 
        0.1526861379         0.1360471976
d   1 1.0 
        0.8000000000         1.9292013661

 15 0
s   3 1.0 
       13.0107010000         0.1634903809
        1.9622572000         0.2773515510
        0.4445379600         0.3157501452
s   1 1.0 
        0.1219496200         0.1470772262
p   1 1.0 
        0.8000000000         1.0784563492

 16 0
s   3 1.0 
       13.0107010000         0.1634903809
        1.9622572000         0.2773515510
        0.4445379600         0.3157501452
s   1 1.0 
        0.1219496200         0.1470772262
p   1 1.0 
        0.8000000000         1.0784563492

 17 0
s   3 1.0 
       13.0107010000         0.1634903809
        1.9622572000         0.2773515510
        0.4445379600         0.3157501452
s   1 1.0 
        0.1219496200         0.1470772262
p   1 1.0 
        0.8000000000         1.0784563492

 18 0
s   3 1.0 
       13.0107010000         0.1634903809
        1.9622572000         0.2773515510
        0.4445379600         0.3157501452
s   1 1.0 
        0.1219496200         0.1470772262
p   1 1.0 
        0.8000000000         1.0784563492

 19 0
s   3 1.0 
       13.0107010000         0.1634903809
        1.9622572000         0.2773515510
        0.4445379600         0.3157501452
s   1 1.0 
        0.1219496200         0.1470772262
p   1 1.0 
        0.8000000000         1.0784563492

 20 0
s   3 1.0 
       13.0107010000         0.1634903809
        1.9622572000         0.2773515510
        0.4445379600         0.3157501452
s   1 1.0 
        0.1219496200         0.1470772262
p   1 1.0 
        0.8000000000         1.0784563492

 21 0
s   3 1.0 
       13.0107010000         0.1634903809
        1.9622572000         0.2773515510
        0.4445379600         0.3157501452
s   1 1.0 
        0.1219496200         0.1470772262
p   1 1.0 
        0.8000000000         1.0784563492

 22 0
s   3 1.0 
       13.0107010000         0.1634903809
        1.9622572000         0.2773515510
        0.4445379600         0.3157501452
s   1 1.0 
        0.1219496200         0.1470772262
p   1 1.0 
        0.8000000000         1.0784563492

 23 0
s   3 1.0 
       13.0107010000         0.1634903809
        1.9622572000         0.2773515510
        0.4445379600         0.3157501452
s   1 1.0 
        0.1219496200         0.1470772262
p   1 1.0 
        0.8000000000         1.0784563492

 24 0
s   3 1.0 
       13.0107010000         0.1634903809
        1.9622572000         0.2773515510
        0.4445379600         0.3157501452
s   1 1.0 
        0.1219496200         0.1470772262
p   1 1.0 
        0.8000000000         1.0784563492

[5D]
[7F]
[9G]
[MO]
 Sym=     1a
 Ene= -2.05348209043740E+01
 Spin= Alpha
 Occup= 2.000000
  1      -0.000086194324
  2      -0.001124705242
  3       0.009149716382
  4      -0.000406765770
  5      -0.000024591930
  6       0.000061187869
  7      -0.005259903600
  8      -0.001546700101
  9       0.000620909695
 10      -0.000025666499
 11      -0.000039999582
 12      -0.000062702666
 13       0.000277618453
 14       0.000141141352
 15       0.000091270222
 16      -0.001422828976
 17       0.001172690751
 18       0.000124305723
 19      -0.000382343535
 20      -0.000030727930
 21      -0.001766849674
 22       0.000886970581
 23       0.000293720124
 24      -0.000063985816
 25      -0.000035847096
 26       0.000016512071
 27       0.000005211717
 28       0.000214937250
 29      -0.000005514359
 30       0.000003086855
 31       0.001885584153
 32       0.000024265703
 33      -0.000094525912
 34      -0.000018643754
 35      -0.000556707364
 36      -0.000434953372
 37       0.000009659260
 38       0.000071546050
 39       0.000003889235
 40      -0.000029167194
 41      -0.000014748396
 42      -0.000032138467
 43       0.000123151501
 44       0.002822156237
 45      -0.010477786493
 46      -0.000042820872
 47      -0.000305781486
 48      -0.000027494182
 49       0.000677646831
 50       0.029796539651
 51       0.003090880172
 52       0.000663299750
 53       0.000037925862
 54      -0.000237625266
 55       0.000990740497
 56       0.000056598955
 57       0.000066415523
 58      -0.000766321378
 59       0.014530458078
 60      -0.000225926413
 61      -0.000016581640
 62       0.000040446439
 63       0.023522666145
 64      -0.002380555587
 65      -0.003340313162
 66       0.000046931832
 67      -0.000030268371
 68      -0.000024772644
 69       0.000211044544
 70      -0.000056132092
 71       0.000025869649
 72      -0.000373602999
 73      -0.005341543468
 74      -0.000108689906
 75      -0.000202834471
 76      -0.000004245250
 77      -0.005904437248
 78      -0.002713808887
 79       0.000561839647
 80      -0.000048904601
 81      -0.000039227551
 82       0.000023326122
 83       0.000067614302
 84      -0.000208687868
 85      -0.000054444796
 86      -0.001071709048
 87       0.012870146361
 88       0.000147844038
 89      -0.000145758140
 90      -0.000024739413
 91       0.004973369641
 92      -0.001686136205
 93      -0.000745482095
 94      -0.000059058350
 95      -0.000020179140
 96       0.000002215077
 97       0.000082910165
 98      -0.000017194497
 99       0.000036702911
100      -0.000579584482
101       0.000125675534
102      -0.000140117656
103      -0.000131726304
104       0.000004265112
105       0.000334624985
106       0.000143551722
107      -0.000036049490
108      -0.000030068095
109      -0.000012247263
110       0.000018210346
111      -0.000027757885
112      -0.000105847239
113       0.000006914769
114       0.000128924208
115      -0.002581640086
116      -0.000064747598
117       0.000002165215
118       0.000012582593
119      -0.000983441601
120      -0.000164474133
121       0.000118090722
122       0.000002372578
123       0.000002711321
124      -0.000000855863
125      -0.000011596123
126       0.000012068120
127       0.000014132422
128      -0.000122843750
129      -0.000546472394
130       0.000002635028
131      -0.000092390176
132       0.000005256198
133       0.000149313831
134      -0.000074538203
135       0.000152386175
136       0.000011063755
137      -0.000005044665
138       0.000016747676
139       0.000011423527
140       0.000016835700
141       0.002023343735
142      -0.000236684779
143       0.001206816531
144      -0.000025849135
145       0.000009924799
146       0.000032342103
147      -0.000309160800
148       0.000068130381
149      -0.000160728262
150      -0.000020103537
151       0.000010596066
152      -0.000006186615
153       0.000054082247
154      -0.000018875859
155      -0.990078027998
156       0.037313527996
157      -0.035186409732
158       0.000132041533
159      -0.002723603545
160      -0.000310863966
161      -0.000482222702
162       0.008069632622
163       0.000910404872
164      -0.000206002205
165      -0.000032287478
166       0.000044930337
167      -0.000078738837
168       0.000015407196
169       0.000003736145
170       0.000048059413
171       0.000490023580
172      -0.000019234513
173      -0.000088263976
174       0.000007843697
175      -0.000118146667
176      -0.000121671757
177       0.000079728692
178       0.000020912456
179       0.000002863204
180       0.000022663198
181      -0.000111149057
182       0.000051587649
183      -0.000020850832
184       0.000654482916
185      -0.000003974107
186      -0.000153978487
187      -0.000189116147
188       0.000002811658
189       0.000611273738
190      -0.000813747238
191      -0.000248842193
192       0.000059475063
193       0.000105955058
194      -0.000008683202
195      -0.000137342913
196       0.000147056596
197       0.000099036317
198       0.000133795251
199       0.000043516043
200      -0.000013523958
201      -0.000006322873
202       0.000023724684
203       0.000119323147
204      -0.000020103281
205       0.000007449867
206      -0.000006210126
207       0.000048251990
208       0.000137759336
209       0.000021767864
210      -0.000026059678
211      -0.000008338908
212      -0.000003071596
213       0.000051423796
214      -0.000022760785
215       0.000007259178
216      -0.000010826259
217      -0.000095667886
218      -0.000047158806
219      -0.000090279131
220       0.000012881449
221      -0.000002639978
222      -0.000027550722
223      -0.000270732968
224      -0.000005560103
225       0.000014420257
226       0.000049210393
227       0.000006956352
228      -0.000108827913
229       0.000053733396
230      -0.000025542443
231      -0.000003822464
232      -0.000095943778
233      -0.000307499672
234      -0.000104304837
235      -0.000001340166
236      -0.000005610197
237       0.000042172186
238      -0.000203393850
239      -0.000013751658
240       0.000041968850
241       0.000091678199
242      -0.000089361862
243       0.000193808503
244       0.000156133284
245       0.000033783887
246       0.000045731377
 Sym=     1a
 Ene= -2.05331423572526E+01
 Spin= Alpha
 Occup= 2.000000
  1       0.000063672390
  2       0.000778395806
  3      -0.005033390823
  4       0.000248699699
  5       0.000390174214
  6       0.000016800362
  7       0.003950731531
  8       0.003022831446
  9       0.000130821574
 10       0.000074908468
 11       0.000031186909
 12      -0.000016961842
 13       0.000026141418
 14      -0.000255680363
 15      -0.000133345552
 16      -0.002339026601
 17      -0.004237976077
 18       0.000396540977
 19      -0.000112234345
 20      -0.000029809227
 21      -0.016157028711
 22       0.007841275295
 23      -0.000573330555
 24      -0.000643093567
 25       0.000075022481
 26      -0.000031389133
 27       0.000632628708
 28      -0.000816376124
 29       0.000046124441
 30       0.000473294228
 31      -0.002143980889
 32      -0.000139371375
 33      -0.000354107364
 34      -0.000025604849
 35      -0.000173790331
 36      -0.003727587131
 37      -0.000013116848
 38       0.000068998943
 39       0.000025689463
 40      -0.000047856156
 41       0.000250654910
 42      -0.000073286047
 43      -0.000075063990
 44       0.001054036462
 45       0.001630318544
 46       0.000232849689
 47      -0.000217302586
 48      -0.000076734155
 49      -0.000422939557
 50      -0.000370938572
 51      -0.000205420048
 52       0.000025219977
 53      -0.000033083162
 54       0.000072140316
 55      -0.000138100491
 56      -0.000096243958
 57      -0.000042415154
 58       0.000551994182
 59      -0.001379752387
 60       0.000151270473
 61      -0.000067084335
 62      -0.000010511173
 63      -0.001356227370
 64       0.000164401949
 65       0.000172730986
 66       0.000029352719
 67      -0.000029174081
 68       0.000011131779
 69       0.000056879906
 70      -0.000078974484
 71      -0.000078012937
 72       0.001266602362
 73       0.000872890741
 74       0.000380357747
 75      -0.000010460544
 76      -0.000087286255
 77      -0.004502055010
 78      -0.000884277188
 79       0.000268464385
 80       0.000063167250
 81      -0.000060498870
 82      -0.000043474781
 83       0.000118768294
 84       0.000120677050
 85       0.000007541321
 86       0.000151459182
 87      -0.000952955058
 88      -0.000027278872
 89       0.000022897481
 90       0.000024736654
 91      -0.000563635593
 92       0.000347756015
 93       0.000177957452
 94       0.000028176722
 95       0.000010197028
 96      -0.000004132694
 97      -0.000026905950
 98       0.000015373222
 99      -0.000018271938
100       0.000313730627
101      -0.000188664913
102       0.000081983002
103      -0.000021896814
104      -0.000022675819
105      -0.000198660825
106      -0.000002738201
107       0.000009700839
108       0.000026397743
109      -0.000000826845
110      -0.000007927508
111       0.000038844000
112       0.000005350828
113       0.000025215933
114       0.000483633001
115      -0.003839286353
116      -0.000024908607
117      -0.000026391508
118       0.000018011028
119      -0.001289892312
120      -0.000902497192
121       0.000172767072
122       0.000059224316
123       0.000012631917
124       0.000006388113
125      -0.000028531313
126      -0.000082177387
127       0.000023001195
128      -0.000438997616
129      -0.001396581832
130       0.000081386792
131      -0.000244396604
132       0.000011213811
133       0.000320249679
134      -0.000153855408
135       0.000120536466
136      -0.000088385694
137       0.000020724962
138       0.000067544228
139       0.000040814938
140       0.000176543949
141       0.990152236126
142      -0.036434155303
143       0.029946212612
144       0.002485578800
145      -0.001164298529
146       0.000110335500
147      -0.006343573214
148       0.002951764959
149      -0.000282097129
150       0.000213280238
151      -0.000014647510
152      -0.000004822992
153      -0.000071654109
154       0.000081314844
155       0.002039617586
156       0.000038472419
157      -0.000405472989
158      -0.000011848915
159       0.000017089620
160      -0.000013955960
161       0.000137349272
162       0.000241796318
163       0.000082038299
164       0.000027805140
165      -0.000003660479
166      -0.000007476106
167       0.000058746897
168      -0.000026509028
169       0.000002613149
170      -0.000031071682
171      -0.000161286577
172       0.000000141378
173       0.000024355135
174       0.000002565710
175      -0.000040259038
176       0.000103604476
177      -0.000056183773
178       0.000005075347
179      -0.000003492669
180       0.000000682280
181       0.000015975791
182      -0.000003215826
183       0.000027355196
184      -0.000508801533
185      -0.001512732433
186       0.000305855203
187       0.000081323894
188      -0.000014878285
189       0.000336661143
190       0.000041849950
191      -0.000262920319
192      -0.000075717092
193      -0.000015425031
194      -0.000055947007
195      -0.000189990646
196      -0.000029355099
197      -0.000044880169
198      -0.000057223947
199      -0.000023418675
200      -0.000005681421
201       0.000004162492
202       0.000239721278
203       0.000282553212
204       0.000012535830
205       0.000134464971
206       0.000000882851
207       0.000072327107
208       0.000166832834
209      -0.000032800435
210      -0.000085202067
211      -0.000016269232
212       0.000080172328
213       0.000550066710
214       0.000036872914
215       0.000100682624
216      -0.000124920507
217       0.000010709062
218      -0.000069882609
219      -0.000002580873
220       0.000003336509
221      -0.000000471946
222       0.000019545701
223       0.000053354518
224      -0.000000885583
225      -0.000008031690
226      -0.000002691801
227      -0.000003793688
228       0.000006843907
229      -0.000006217583
230       0.000002112931
231       0.000005180924
232       0.000263652642
233       0.000182574195
234      -0.000081551464
235      -0.000109744980
236       0.000011858345
237       0.000148348338
238       0.000707944425
239      -0.000048024448
240      -0.000095837101
241      -0.000123933917
242       0.000027415809
243       0.000062478365
244       0.000024276247
245       0.000088067312
246       0.000003059363
 Sym=     1a
 Ene= -1.56542420342697E+01
 Spin= Alpha
 Occup= 2.000000
  1       0.000035530934
  2      -0.000096189940
  3      -0.001160987377
  4      -0.000124041043
  5      -0.000075605613
  6       0.000020814329
  7      -0.000348263450
  8      -0.000683961578
  9       0.000021064347
 10      -0.000057857624
 11      -0.000022891486
 12       0.000005088970
 13      -0.000034060096
 14      -0.000038342770
 15       0.000005009856
 16       0.000003379299
 17      -0.000937804618
 18       0.000006141374
 19      -0.000028146308
 20       0.000007428950
 21       0.000333060111
 22      -0.000348404001
 23      -0.000083485272
 24       0.000033946808
 25      -0.000007504569
 26      -0.000007553767
 27       0.000008493463
 28       0.000039138799
 29       0.000082257130
 30       0.000022130779
 31      -0.003228916316
 32      -0.000056488406
 33       0.000082915124
 34       0.000019180891
 35       0.000891507367
 36      -0.000191312096
 37      -0.000225619294
 38      -0.000002814399
 39       0.000019323058
 40      -0.000001360895
 41      -0.000014600116
 42       0.000056836707
 43      -0.000034234250
 44       0.000532180523
 45       0.002220114071
 46      -0.000130501278
 47      -0.000169784453
 48       0.000006646358
 49       0.000896586750
 50      -0.004592445531
 51      -0.000617100554
 52       0.000009571184
 53       0.000030398168
 54       0.000014200736
 55      -0.000209259594
 56       0.000048310967
 57       0.000129250410
 58       0.000536052372
 59       0.012134496030
 60       0.000696796695
 61      -0.000126533569
 62      -0.000102525399
 63      -0.014239979723
 64      -0.000059702966
 65       0.001846130676
 66       0.000346440377
 67       0.000203480849
 68      -0.000005798903
 69      -0.000833440559
 70       0.000179271650
 71      -0.000042286012
 72       0.000432418409
 73      -0.004904126915
 74      -0.000150934210
 75      -0.000020515590
 76       0.000010954611
 77       0.007951046864
 78      -0.001546191445
 79      -0.001248071649
 80      -0.000034838608
 81      -0.000044324459
 82       0.000013083377
 83       0.000153267417
 84      -0.000090335906
 85      -0.990301637487
 86       0.038101604357
 87      -0.041432999241
 88      -0.000268393455
 89       0.000303681193
 90       0.000013902568
 91      -0.003702614416
 92       0.000994237030
 93       0.000514472714
 94      -0.000278666794
 95      -0.000041914152
 96       0.000078973806
 97      -0.000238433277
 98       0.000006419167
 99       0.000209794891
100      -0.000180204501
101       0.008382418825
102      -0.000345549260
103      -0.000456132733
104       0.000013579622
105       0.003496382970
106       0.003241167198
107      -0.000188405473
108       0.000510824048
109      -0.000036378775
110      -0.000006965058
111       0.000522749901
112      -0.000918458668
113       0.000210935406
114      -0.000486309003
115       0.003110291693
116      -0.000081675276
117       0.000081143535
118       0.000019666814
119       0.001337608618
120       0.000258895219
121      -0.000131193701
122      -0.000092065783
123      -0.000005841450
124      -0.000003852480
125      -0.000004190113
126       0.000156029155
127      -0.000005012653
128       0.000040844477
129       0.000333095754
130      -0.000004905553
131       0.000039044546
132       0.000000541331
133      -0.000063966692
134       0.000108217739
135      -0.000101696463
136      -0.000010657400
137       0.000006094993
138      -0.000003499101
139      -0.000009942148
140      -0.000002670997
141      -0.000005184991
142      -0.000054316114
143       0.000111971579
144       0.000005714436
145      -0.000008029983
146      -0.000004390536
147      -0.000084933668
148       0.000073518677
149       0.000028940411
150      -0.000007188664
151      -0.000003684252
152       0.000000361728
153       0.000011369621
154      -0.000014495131
155      -0.000045929532
156      -0.000471048666
157       0.002778115249
158      -0.000070162651
159       0.000065391350
160       0.000027160010
161       0.000174084305
162      -0.000634507236
163      -0.000118640626
164       0.000043710453
165       0.000014493758
166      -0.000008270245
167      -0.000006977927
168       0.000009017565
169       0.000175023093
170      -0.000618702686
171       0.010007628061
172      -0.000094206083
173       0.000316695130
174       0.000066991341
175       0.001234143755
176      -0.002713970177
177      -0.000744820806
178       0.000553028626
179       0.000126857229
180      -0.000266185409
181       0.000621558938
182       0.000626501111
183      -0.000012717954
184       0.000064034783
185       0.000763804787
186      -0.000075390803
187      -0.000047284879
188      -0.000004782928
189      -0.000315642187
190      -0.000150442430
191       0.000010307882
192      -0.000023430770
193       0.000004988511
194       0.000006863503
195       0.000021109246
196       0.000025894276
197       0.000103259696
198       0.000069430988