[Molden Format]
[Title]
 Molden file created by orca_2mkl for BaseName=h2o

[Atoms] AU
H    1   1          0.0000000000         1.4161006715         1.0200146710 
H    2   1          0.0000000000        -1.4161006715         1.0200146710 
O    3   8          0.0000000000         0.0000000000        -0.1285298817 
[GTO]
  1 0
s   3 1.0 
       34.0613410000         0.2556299169
        5.1235746000         0.4613599649
        1.1646626000         0.6811214941
s   1 1.0 
        0.3272304100         0.3083545312
s   1 1.0 
        0.1030724100         0.1296483265
p   1 1.0 
        0.8000000000         1.0784563492

  2 0
s   3 1.0 
       34.0613410000         0.2556299169
        5.1235746000         0.4613599649
        1.1646626000         0.6811214941
s   1 1.0 
        0.3272304100         0.3083545312
s   1 1.0 
        0.1030724100         0.1296483265
p   1 1.0 
        0.8000000000         1.0784563492

  3 0
s   6 1.0 
    27032.3826310000         0.8598581479
     4052.3871392000         1.6055305368
      922.3272271000         2.7458778516
      261.2407098900         4.2987674426
       85.3546413510         5.8797663284
       31.0350352450         6.3163983216
s   2 1.0 
       12.2608607280         2.9812147522
        4.9987076005         0.9419559635
s   1 1.0 
        1.1703108158         0.8019291610
s   1 1.0 
        0.4647474099         0.4011648062
s   1 1.0 
        0.1850453636         0.2010799406
p   4 1.0 
       63.2749548010         3.0572017144
       14.6270493790         3.3844839414
        4.4501223456         2.9474262132
        1.5275799647         1.7118271494
p   1 1.0 
        0.5293511794         0.6436057926
p   1 1.0 
        0.1747842127         0.1610897254
d   1 1.0 
        2.3140000000        12.3767310624
d   1 1.0 
        0.6450000000         1.3234257612
f   1 1.0 
        1.4280000000        12.7097950062

[5D]
[7F]
[9G]
[MO]
 Sym=     1a
 Ene= -2.05620164252256E+01
 Spin= Alpha
 Occup= 2.000000
  1       0.000446425841
  2       0.000658175442
  3      -0.000731584615
  4      -0.000000000000
  5      -0.000349905631
  6      -0.000190135533
  7       0.000446425841
  8       0.000658175442
  9      -0.000731584615
 10       0.000000000000
 11       0.000349905631
 12      -0.000190135533
 13       0.435635504347
 14       0.642404774203
 15       0.021847090858
 16      -0.008766969313
 17       0.003618625261
 18       0.000000000000
 19       0.000000000000
 20       0.001785535217
 21      -0.000000000000
 22      -0.000000000000
 23      -0.001705502497
 24       0.000000000000
 25      -0.000000000000
 26       0.000612668846
 27       0.000028025764
 28      -0.000000000000
 29       0.000000000000
 30       0.000001756056
 31       0.000000000000
 32      -0.000135746246
 33      -0.000000000000
 34      -0.000000000000
 35       0.000381085352
 36      -0.000000000000
 37       0.000006254732
 38      -0.000000000000
 39      -0.000000000000
 40       0.000056156990
 41       0.000000000000
 42       0.000000000000
 43      -0.000000000000
 Sym=     1a
 Ene= -1.34768809538736E+00
 Spin= Alpha
 Occup= 2.000000
  1       0.086796923993
  2       0.066009209182
  3       0.004295803883
  4       0.000000000000
  5      -0.013828720149
  6      -0.008952083110
  7       0.086796923993
  8       0.066009209182
  9       0.004295803883
 10      -0.000000000000
 11       0.013828720149
 12      -0.008952083110
 13      -0.095916582576
 14      -0.232263931725
 15       0.327420517971
 16       0.465708461045
 17       0.158218911178
 18      -0.000000000000
 19       0.000000000000
 20       0.060184812818
 21       0.000000000000
 22      -0.000000000000
 23       0.062419914524
 24      -0.000000000000
 25      -0.000000000000
 26       0.006616562875
 27       0.001177131177
 28       0.000000000000
 29       0.000000000000
 30      -0.003787054072
 31      -0.000000000000
 32       0.004573089874
 33       0.000000000000
 34      -0.000000000000
 35      -0.009593262502
 36      -0.000000000000
 37      -0.001841345256
 38      -0.000000000000
 39      -0.000000000000
 40      -0.005432008118
 41      -0.000000000000
 42      -0.000000000000
 43       0.000000000000
 Sym=     1a
 Ene= -7.05527241078509E-01
 Spin= Alpha
 Occup= 2.000000
  1      -0.138578870739
  2      -0.185159060178
  3      -0.053648382824
  4      -0.000000000000
  5       0.008859812194
  6       0.017711601942
  7       0.138578870739
  8       0.185159060178
  9       0.053648382824
 10       0.000000000000
 11       0.008859812194
 12      -0.017711601942
 13       0.000000000000
 14      -0.000000000000
 15       0.000000000000
 16       0.000000000000
 17      -0.000000000000
 18      -0.000000000000
 19      -0.367805821162
 20      -0.000000000000
 21      -0.000000000000
 22      -0.324751262296
 23      -0.000000000000
 24      -0.000000000000
 25      -0.127449786185
 26      -0.000000000000
 27      -0.000000000000
 28       0.000000000000
 29      -0.013636489087
 30       0.000000000000
 31       0.000000000000
 32      -0.000000000000
 33       0.000000000000
 34      -0.035164171732
 35      -0.000000000000
 36      -0.000000000000
 37       0.000000000000
 38      -0.000000000000
 39      -0.002287058620
 40      -0.000000000000
 41      -0.000000000000
 42       0.000000000000
 43      -0.005517088872
 Sym=     1a
 Ene= -5.84892221284117E-01
 Spin= Alpha
 Occup= 2.000000
  1       0.086810598539
  2       0.128275681186
  3       0.034010125138
  4      -0.000000000000
  5      -0.018237554224
  6       0.006593677652
  7       0.086810598539
  8       0.128275681186
  9       0.034010125138
 10       0.000000000000
 11       0.018237554224
 12       0.006593677652
 13       0.032430067009
 14       0.080020220394
 15      -0.127634912398
 16      -0.186625613694
 17      -0.198017460064
 18      -0.000000000000
 19       0.000000000000
 20       0.403797874546
 21      -0.000000000000
 22      -0.000000000000
 23       0.350681339260
 24      -0.000000000000
 25       0.000000000000
 26       0.220148985925
 27       0.004790059474
 28      -0.000000000000
 29       0.000000000000
 30      -0.003728771857
 31      -0.000000000000
 32       0.026255086990
 33      -0.000000000000
 34       0.000000000000
 35      -0.004583771346
 36       0.000000000000
 37       0.001006040542
 38       0.000000000000
 39      -0.000000000000
 40      -0.004418948811
 41       0.000000000000
 42       0.000000000000
 43       0.000000000000
 Sym=     1a
 Ene= -5.08156495351794E-01
 Spin= Alpha
 Occup= 2.000000
  1       0.000000000000
  2       0.000000000000
  3      -0.000000000000
  4       0.023717118104
  5      -0.000000000000
  6      -0.000000000000
  7       0.000000000000
  8       0.000000000000
  9       0.000000000000
 10       0.023717118104
 11       0.000000000000
 12      -0.000000000000
 13       0.000000000000
 14       0.000000000000
 15      -0.000000000000
 16      -0.000000000000
 17      -0.000000000000
 18       0.464242924733
 19       0.000000000000
 20      -0.000000000000
 21       0.415524555582
 22      -0.000000000000
 23      -0.000000000000
 24       0.313079393580
 25       0.000000000000
 26      -0.000000000000
 27      -0.000000000000
 28       0.004241880031
 29      -0.000000000000
 30      -0.000000000000
 31      -0.000000000000
 32       0.000000000000
 33       0.026029499291
 34      -0.000000000000
 35       0.000000000000
 36       0.000000000000
 37       0.000000000000
 38       0.002340357186
 39      -0.000000000000
 40       0.000000000000
 41      -0.000000000000
 42       0.005163141772
 43       0.000000000000
 Sym=     1a
 Ene= 1.26417042819439E-01
 Spin= Alpha
 Occup= 0.000000
  1       0.024122059541
  2      -0.016613576385
  3       1.055834036556
  4      -0.000000000000
  5       0.027467858872
  6       0.020814416563
  7       0.024122059541
  8      -0.016613576385
  9       1.055834036556
 10       0.000000000000
 11      -0.027467858872
 12       0.020814416563
 13       0.026041937680
 14       0.070229109904
 15      -0.190601626949
 16       0.227316355445
 17      -1.382451685068
 18      -0.000000000000
 19      -0.000000000000
 20      -0.122448313405
 21       0.000000000000
 22       0.000000000000
 23      -0.056590877324
 24      -0.000000000000
 25      -0.000000000000
 26      -0.378307802695
 27      -0.000978822760
 28      -0.000000000000
 29       0.000000000000
 30      -0.000922365397
 31      -0.000000000000
 32      -0.005955573969
 33      -0.000000000000
 34       0.000000000000
 35      -0.008711683404
 36       0.000000000000
 37      -0.000758724397
 38       0.000000000000
 39      -0.000000000000
 40       0.000058752807
 41       0.000000000000
 42       0.000000000000
 43      -0.000000000000
 Sym=     1a
 Ene= 1.97271599769419E-01
 Spin= Alpha
 Occup= 0.000000
  1      -0.019048977634
  2       0.159651220580
  3      -1.864409991560
  4      -0.000000000000
  5      -0.039444976008
  6      -0.036133367117
  7       0.019048977634
  8      -0.159651220580
  9       1.864409991560
 10       0.000000000000
 11      -0.039444976008
 12       0.036133367117
 13      -0.000000000000
 14      -0.000000000000
 15       0.000000000000
 16      -0.000000000000
 17      -0.000000000000
 18       0.000000000000
 19       0.190740306873
 20       0.000000000000
 21       0.000000000000
 22       0.009852508256
 23      -0.000000000000
 24       0.000000000000
 25       0.735884987192
 26      -0.000000000000
 27       0.000000000000
 28      -0.000000000000
 29       0.001080240877
 30      -0.000000000000
 31       0.000000000000
 32      -0.000000000000
 33      -0.000000000000
 34      -0.036249800626
 35       0.000000000000
 36       0.000000000000
 37       0.000000000000
 38       0.000000000000
 39      -0.003795320357
 40       0.000000000000
 41      -0.000000000000
 42      -0.000000000000
 43      -0.000542603689
 Sym=     1a
 Ene= 5.17718118563477E-01
 Spin= Alpha
 Occup= 0.000000
  1       0.094058666319
  2       1.507233972581
  3      -0.249124699776
  4      -0.000000000000
  5      -0.095804612134
  6      -0.066136433506
  7      -0.094058666319
  8      -1.507233972581
  9       0.249124699776
 10      -0.000000000000
 11      -0.095804612134
 12       0.066136433506
 13      -0.000000000000
 14       0.000000000000
 15      -0.000000000000
 16       0.000000000000
 17       0.000000000000
 18      -0.000000000000
 19      -0.090530222175
 20      -0.000000000000
 21       0.000000000000
 22      -0.312961708795
 23       0.000000000000
 24       0.000000000000
 25      -1.457838525683
 26       0.000000000000
 27      -0.000000000000
 28       0.000000000000
 29       0.035871190261
 30       0.000000000000
 31       0.000000000000
 32       0.000000000000
 33       0.000000000000
 34      -0.168860662383
 35      -0.000000000000
 36      -0.000000000000
 37      -0.000000000000
 38      -0.000000000000
 39      -0.009362324401
 40      -0.000000000000
 41      -0.000000000000
 42       0.000000000000
 43      -0.013062667058
 Sym=     1a
 Ene= 5.68112741864255E-01
 Spin= Alpha
 Occup= 0.000000
  1      -0.042366016525
  2      -1.340663518759
  3       0.209734972367
  4      -0.000000000000
  5       0.082873548283
  6       0.053655542815
  7      -0.042366016525
  8      -1.340663518759
  9       0.209734972367
 10      -0.000000000000
 11      -0.082873548283
 12       0.053655542815
 13      -0.031749490618
 14      -0.069223780101
 15      -0.057025325966
 16       0.859926606871
 17       0.624949209812
 18      -0.000000000000
 19      -0.000000000000
 20      -0.109941645339
 21       0.000000000000
 22       0.000000000000
 23      -0.197333752228
 24       0.000000000000
 25      -0.000000000000
 26       1.656428532131
 27      -0.009333693062
 28       0.000000000000
 29       0.000000000000
 30       0.016793116310
 31       0.000000000000
 32       0.044805863880
 33       0.000000000000
 34      -0.000000000000
 35      -0.070876054031
 36      -0.000000000000
 37      -0.006008561027
 38      -0.000000000000
 39       0.000000000000
 40      -0.015142324976
 41       0.000000000000
 42       0.000000000000
 43      -0.000000000000
 Sym=     1a
 Ene= 5.97175324719952E-01
 Spin= Alpha
 Occup= 0.000000
  1       0.000000000000
  2      -0.000000000000
  3       0.000000000000
  4       0.013933591744
  5      -0.000000000000
  6       0.000000000000
  7       0.000000000000
  8      -0.000000000000
  9       0.000000000000
 10       0.013933591744
 11       0.000000000000
 12       0.000000000000
 13       0.000000000000
 14      -0.000000000000
 15      -0.000000000000
 16       0.000000000000
 17      -0.000000000000
 18       0.271897556950
 19      -0.000000000000
 20       0.000000000000
 21       0.743299063441
 22       0.000000000000
 23      -0.000000000000
 24      -1.264842761493
 25      -0.000000000000
 26      -0.000000000000
 27      -0.000000000000
 28       0.006759122129
 29      -0.000000000000
 30       0.000000000000
 31       0.000000000000
 32      -0.000000000000
 33      -0.008617730391
 34       0.000000000000
 35      -0.000000000000
 36      -0.000000000000
 37      -0.000000000000
 38       0.000347344374
 39      -0.000000000000
 40       0.000000000000
 41      -0.000000000000
 42       0.001074706026
 43      -0.000000000000
 Sym=     1a
 Ene= 6.43350487944291E-01
 Spin= Alpha
 Occup= 0.000000
  1      -0.065235189991
  2      -1.313821614936
  3       0.535896185471
  4      -0.000000000000
  5       0.040846567081
  6       0.059706126476
  7      -0.065235189991
  8      -1.313821614936
  9       0.535896185471
 10       0.000000000000
 11      -0.040846567081
 12       0.059706126476
 13      -0.014622923277
 14      -0.034180402641
 15      -0.024604895231
 16       0.387427384033
 17       0.676622390889
 18      -0.000000000000
 19      -0.000000000000
 20       0.279060235924
 21       0.000000000000
 22       0.000000000000
 23       0.832767455348
 24      -0.000000000000
 25      -0.000000000000
 26      -0.231057565319
 27       0.003211791445
 28       0.000000000000
 29       0.000000000000
 30       0.014535662185
 31       0.000000000000
 32       0.021099553790
 33       0.000000000000
 34      -0.000000000000
 35      -0.041125662178
 36      -0.000000000000
 37      -0.006756482684
 38       0.000000000000
 39       0.000000000000
 40      -0.016004689855
 41       0.000000000000
 42       0.000000000000
 43      -0.000000000000
 Sym=     1a
 Ene= 7.69465676313308E-01
 Spin= Alpha
 Occup= 0.000000
  1       0.020448698399
  2      -0.937943775622
  3      -0.938793001098
  4       0.000000000000
  5       0.071713079583
  6       0.062211944389
  7       0.020448698399
  8      -0.937943775622
  9      -0.938793001098
 10      -0.000000000000
 11      -0.071713079583
 12       0.062211944389
 13       0.049355448708
 14       0.101225053168
 15       0.159420608337
 16      -2.366237762490
 17       4.898421878044
 18       0.000000000000
 19      -0.000000000000
 20      -0.077465401491
 21      -0.000000000000
 22      -0.000000000000
 23      -0.028758184454
 24       0.000000000000
 25      -0.000000000000
 26       1.348554222170
 27      -0.005775410093
 28       0.000000000000
 29      -0.000000000000
 30       0.016910533257
 31       0.000000000000
 32       0.030844020955
 33       0.000000000000
 34      -0.000000000000
 35      -0.059661853989
 36      -0.000000000000
 37      -0.005791834669
 38      -0.000000000000
 39       0.000000000000
 40      -0.012878238132
 41       0.000000000000
 42      -0.000000000000
 43      -0.000000000000
 Sym=     1a
 Ene= 7.71137889420898E-01
 Spin= Alpha
 Occup= 0.000000
  1      -0.049813873929
  2      -0.328160422644
  3       1.535123062100
  4       0.000000000000
  5      -0.009523779710
  6      -0.027643941454
  7       0.049813873929
  8       0.328160422644
  9      -1.535123062100
 10      -0.000000000000
 11      -0.009523779710
 12       0.027643941454
 13       0.000000000000
 14       0.000000000000
 15      -0.000000000000
 16       0.000000000000
 17       0.000000000000
 18       0.000000000000
 19       0.331753469209
 20      -0.000000000000
 21       0.000000000000
 22       0.896572602903
 23       0.000000000000
 24      -0.000000000000
 25      -1.837581083964
 26       0.000000000000
 27      -0.000000000000
 28       0.000000000000
 29       0.006766114374
 30       0.000000000000
 31      -0.000000000000
 32       0.000000000000
 33       0.000000000000
 34      -0.032178749225
 35      -0.000000000000
 36      -0.000000000000
 37      -0.000000000000
 38      -0.000000000000
 39      -0.000210289532
 40      -0.000000000000
 41      -0.000000000000
 42       0.000000000000
 43       0.001560145145
 Sym=     1a
 Ene= 1.38957049126070E+00
 Spin= Alpha
 Occup= 0.000000
  1      -0.047697769263
  2       0.594065067108
  3       0.029250079381
  4      -0.000000000000
  5      -0.342106558246
  6       0.300946831529
  7      -0.047697769263
  8       0.594065067108
  9       0.029250079381
 10       0.000000000000
 11       0.342106558246
 12       0.300946831529
 13      -0.003020879796
 14      -0.008874815173
 15       0.054064505002
 16      -0.009874994924
 17      -0.829988040811
 18       0.000000000000
 19       0.000000000000
 20      -0.068597987216
 21       0.000000000000
 22       0.000000000000
 23      -0.215529199242
 24      -0.000000000000
 25       0.000000000000
 26      -0.529242232181
 27       0.007911924988
 28      -0.000000000000
 29       0.000000000000
 30       0.005386257231
 31      -0.000000000000
 32       0.453935111527
 33      -0.000000000000
 34       0.000000000000
 35       0.165269064262
 36       0.000000000000
 37       0.000679352659
 38      -0.000000000000
 39      -0.000000000000
 40       0.010021672184
 41       0.000000000000
 42      -0.000000000000
 43       0.000000000000
 Sym=     1a
 Ene= 1.44523621667940E+00
 Spin= Alpha
 Occup= 0.000000
  1      -0.000000000000
  2      -0.000000000000
  3       0.000000000000
  4      -0.430171932357
  5      -0.000000000000
  6       0.000000000000
  7      -0.000000000000
  8      -0.000000000000
  9       0.000000000000
 10       0.430171932357
 11      -0.000000000000
 12       0.000000000000
 13       0.000000000000
 14      -0.000000000000
 15      -0.000000000000
 16       0.000000000000
 17       0.000000000000
 18       0.000000000000
 19       0.000000000000
 20       0.000000000000
 21       0.000000000000
 22      -0.000000000000
 23       0.000000000000
 24      -0.000000000000
 25      -0.000000000000
 26      -0.000000000000
 27       0.000000000000
 28      -0.000000000000
 29       0.000000000000
 30      -0.000000000000
 31      -0.003951013096
 32       0.000000000000
 33       0.000000000000
 34      -0.000000000000
 35       0.000000000000
 36      -0.541507655640
 37      -0.000000000000
 38      -0.000000000000
 39       0.000000000000
 40      -0.000000000000
 41       0.012781320221
 42       0.000000000000
 43      -0.000000000000
 Sym=     1a
 Ene= 1.54144884642295E+00
 Spin= Alpha
 Occup= 0.000000
  1      -0.000000000000
  2      -0.000000000000
  3       0.000000000000
  4       0.392902631298
  5       0.000000000000
  6      -0.000000000000
  7      -0.000000000000
  8      -0.000000000000
  9      -0.000000000000
 10       0.392902631298
 11      -0.000000000000
 12      -0.000000000000
 13      -0.000000000000
 14      -0.000000000000
 15       0.000000000000
 16       0.000000000000
 17       0.000000000000
 18      -0.091679521797
 19      -0.000000000000
 20      -0.000000000000
 21      -0.079133869941
 22       0.000000000000
 23       0.000000000000
 24      -0.192285434836
 25      -0.000000000000
 26       0.000000000000
 27       0.000000000000
 28      -0.003185666837
 29       0.000000000000
 30       0.000000000000
 31       0.000000000000
 32      -0.000000000000
 33       0.657355684578
 34       0.000000000000
 35      -0.000000000000
 36      -0.000000000000
 37      -0.000000000000
 38       0.006220421518
 39       0.000000000000
 40      -0.000000000000
 41       0.000000000000
 42      -0.013759720014
 43      -0.000000000000
 Sym=     1a
 Ene= 1.77535536780503E+00
 Spin= Alpha
 Occup= 0.000000
  1       0.378723304389
  2      -2.213226769263
  3       0.516267950528
  4       0.000000000000
  5       0.225667948891
  6       0.466067571990
  7      -0.378723304389
  8       2.213226769263
  9      -0.516267950528
 10       0.000000000000
 11       0.225667948891
 12      -0.466067571990
 13       0.000000000000
 14      -0.000000000000
 15       0.000000000000
 16      -0.000000000000
 17      -0.000000000000
 18       0.000000000000
 19      -0.119621620049
 20       0.000000000000
 21      -0.000000000000
 22       0.974224425049
 23      -0.000000000000
 24      -0.000000000000
 25       0.899533162607
 26      -0.000000000000
 27       0.000000000000
 28       0.000000000000
 29      -0.019329803646
 30      -0.000000000000
 31      -0.000000000000
 32      -0.000000000000
 33      -0.000000000000
 34       1.273645533946
 35       0.000000000000
 36       0.000000000000
 37       0.000000000000
 38       0.000000000000
 39       0.059485054777
 40       0.000000000000
 41       0.000000000000
 42      -0.000000000000
 43       0.045251317550
 Sym=     1a
 Ene= 1.90803722248054E+00
 Spin= Alpha
 Occup= 0.000000
  1       0.345826399565
  2      -2.106042675213
  3       0.166597462020
  4      -0.000000000000
  5       0.259476765244
  6       0.180062641226
  7       0.345826399565
  8      -2.106042675213
  9       0.166597462020
 10      -0.000000000000
 11      -0.259476765244
 12       0.180062641226
 13       0.014544567870
 14       0.051433138311
 15      -0.404766751754
 16       0.752498290418
 17       1.910721123493
 18      -0.000000000000
 19      -0.000000000000
 20      -0.097556142238
 21       0.000000000000
 22       0.000000000000
 23       0.553534993859
 24      -0.000000000000
 25      -0.000000000000
 26       0.989524500929
 27      -0.006875440282
 28       0.000000000000
 29       0.000000000000
 30       0.012497298119
 31       0.000000000000
 32       0.378782386685
 33       0.000000000000
 34      -0.000000000000
 35      -1.122113520406
 36      -0.000000000000
 37      -0.019867612759
 38       0.000000000000
 39       0.000000000000
 40      -0.067401211315
 41       0.000000000000
 42       0.000000000000
 43      -0.000000000000
 Sym=     1a
 Ene= 2.04102459927651E+00
 Spin= Alpha
 Occup= 0.000000
  1       0.083563915403
  2      -0.332339680436
  3       0.275750235847
  4       0.000000000000
  5       0.553745339984
  6      -0.554927118934
  7      -0.083563915403
  8       0.332339680436
  9      -0.275750235847
 10      -0.000000000000
 11       0.553745339984
 12       0.554927118934
 13       0.000000000000
 14      -0.000000000000
 15      -0.000000000000
 16       0.000000000000
 17       0.000000000000
 18       0.000000000000
 19      -0.141291618140
 20      -0.000000000000
 21       0.000000000000
 22       0.142645525722
 23       0.000000000000
 24      -0.000000000000
 25      -0.313997386317
 26       0.000000000000
 27      -0.000000000000
 28       0.000000000000
 29      -0.013037712936
 30       0.000000000000
 31      -0.000000000000
 32       0.000000000000
 33       0.000000000000
 34       0.422214111195
 35      -0.000000000000
 36      -0.000000000000
 37      -0.000000000000
 38      -0.000000000000
 39       0.025873107103
 40      -0.000000000000
 41       0.000000000000
 42       0.000000000000
 43       0.005037012930
 Sym=     1a
 Ene= 2.27990548239998E+00
 Spin= Alpha
 Occup= 0.000000
  1       0.637183664207
  2      -2.082575179173
  3       0.458656686354
  4       0.000000000000
  5       0.708484252431
  6       0.648025319995
  7       0.637183664207
  8      -2.082575179173
  9       0.458656686354
 10      -0.000000000000
 11      -0.708484252431
 12       0.648025319995
 13       0.014094420296
 14       0.066134608914
 15      -0.879203501445
 16       2.788757013799
 17       0.104255438609
 18      -0.000000000000
 19      -0.000000000000
 20      -0.356211701574
 21       0.000000000000
 22       0.000000000000
 23       1.433852058675
 24      -0.000000000000
 25      -0.000000000000
 26       0.099288783886
 27      -0.001083427686
 28       0.000000000000
 29       0.000000000000
 30       0.000160620166
 31       0.000000000000
 32      -0.118698505476
 33       0.000000000000
 34       0.000000000000
 35      -0.019335278020
 36      -0.000000000000
 37      -0.072071851896
 38       0.000000000000
 39       0.000000000000
 40      -0.151949865502
 41       0.000000000000
 42       0.000000000000
 43      -0.000000000000
 Sym=     1a
 Ene= 2.36187301459040E+00
 Spin= Alpha
 Occup= 0.000000
  1       0.000000000000
  2       0.000000000000
  3      -0.000000000000
  4       0.770583056279
  5      -0.000000000000
  6      -0.000000000000
  7      -0.000000000000
  8       0.000000000000
  9       0.000000000000
 10       0.770583056279
 11       0.000000000000
 12      -0.000000000000
 13       0.000000000000
 14      -0.000000000000
 15       0.000000000000
 16      -0.000000000000
 17      -0.000000000000
 18      -0.279793677344
 19       0.000000000000
 20      -0.000000000000
 21       0.078153032980
 22      -0.000000000000
 23       0.000000000000
 24      -0.437771640958
 25       0.000000000000
 26      -0.000000000000
 27       0.000000000000
 28       0.017529797966
 29      -0.000000000000
 30      -0.000000000000
 31       0.000000000000
 32      -0.000000000000
 33      -0.918695471816
 34      -0.000000000000
 35       0.000000000000
 36      -0.000000000000
 37       0.000000000000
 38      -0.010135235638
 39      -0.000000000000
 40       0.000000000000
 41       0.000000000000
 42       0.008165238434
 43       0.000000000000
 Sym=     1a
 Ene= 2.37698603262261E+00
 Spin= Alpha
 Occup= 0.000000
  1       0.000000000000
  2      -0.000000000000
  3      -0.000000000000
  4       0.752907947798
  5       0.000000000000
  6       0.000000000000
  7       0.000000000000
  8      -0.000000000000
  9      -0.000000000000
 10      -0.752907947798
 11      -0.000000000000
 12       0.000000000000
 13       0.000000000000
 14      -0.000000000000
 15       0.000000000000
 16      -0.000000000000
 17       0.000000000000
 18      -0.000000000000
 19      -0.000000000000
 20      -0.000000000000
 21      -0.000000000000
 22       0.000000000000
 23       0.000000000000
 24      -0.000000000000
 25      -0.000000000000
 26       0.000000000000
 27       0.000000000000
 28       0.000000000000
 29       0.000000000000
 30      -0.000000000000
 31       0.023722050875
 32      -0.000000000000
 33      -0.000000000000
 34       0.000000000000
 35       0.000000000000
 36      -1.076453822681
 37       0.000000000000
 38       0.000000000000
 39       0.000000000000
 40       0.000000000000
 41      -0.002210398732
 42       0.000000000000
 43      -0.000000000000
 Sym=     1a
 Ene= 2.58317846367235E+00
 Spin= Alpha
 Occup= 0.000000
  1       0.439383879309
  2      -1.993726287506
  3       0.733470590704
  4       0.000000000000
  5       0.955602508502
  6       0.795515571864
  7      -0.439383879309
  8       1.993726287506
  9      -0.733470590704
 10       0.000000000000
 11       0.955602508502
 12      -0.795515571864
 13       0.000000000000
 14      -0.000000000000
 15       0.000000000000
 16      -0.000000000000
 17      -0.000000000000
 18       0.000000000000
 19      -0.336228949399
 20      -0.000000000000
 21      -0.000000000000
 22       2.169904726000
 23      -0.000000000000
 24      -0.000000000000
 25      -0.280770669958
 26      -0.000000000000
 27      -0.000000000000
 28       0.000000000000
 29      -0.037414660664
 30       0.000000000000
 31      -0.000000000000
 32       0.000000000000
 33      -0.000000000000
 34       0.287423373501
 35       0.000000000000
 36       0.000000000000
 37       0.000000000000
 38       0.000000000000
 39       0.108098801142
 40       0.000000000000
 41      -0.000000000000
 42      -0.000000000000
 43       0.098362199806
 Sym=     1a
 Ene= 2.65747602166569E+00
 Spin= Alpha
 Occup= 0.000000
  1      -0.119894748299
  2       0.667058730454
  3       0.026254964941
  4       0.000000000000
  5      -0.699828830576
  6       0.480066834773
  7      -0.119894748299
  8       0.667058730454
  9       0.026254964941
 10      -0.000000000000
 11       0.699828830576
 12       0.480066834773
 13      -0.010835436837
 14      -0.040925165705
 15       0.336773795668
 16      -0.648861307369
 17      -0.580234839673
 18       0.000000000000
 19       0.000000000000
 20      -0.365998382074
 21       0.000000000000
 22      -0.000000000000
 23      -0.008787495599
 24      -0.000000000000
 25       0.000000000000
 26      -0.732173515029
 27       0.008243089750
 28      -0.000000000000
 29      -0.000000000000
 30       0.009506096872
 31      -0.000000000000
 32      -1.094665036303
 33      -0.000000000000
 34      -0.000000000000
 35      -0.425183207335
 36       0.000000000000
 37       0.020916625060
 38      -0.000000000000
 39      -0.000000000000
 40       0.030350519435
 41      -0.000000000000
 42       0.000000000000
 43       0.000000000000
 Sym=     1a
 Ene= 2.96716973705564E+00
 Spin= Alpha
 Occup= 0.000000
  1      -0.199827526713
  2      -1.282483166597
  3      -0.170992979733
  4      -0.000000000000
  5       0.660747544640
  6       0.870935024236
  7      -0.199827526713
  8      -1.282483166597
  9      -0.170992979733
 10      -0.000000000000
 11      -0.660747544640
 12       0.870935024236
 13      -0.044006057335
 14      -0.131690850188
 15       0.290466537995
 16       0.870568809034
 17       1.658753987613
 18      -0.000000000000
 19      -0.000000000000
 20       0.799901338148
 21       0.000000000000