[Molden Format]
[Title]
 Molden file created by orca_2mkl for BaseName=o2

[Atoms] AU
O    1   8          0.0000000000         0.0000000000         1.0945732395 
O    2   8          0.0000000000         0.0000000000        -1.0945732395 
[GTO]
  1 0
s   6 1.0 
    27032.3826310000         0.8598581479
     4052.3871392000         1.6055305368
      922.3272271000         2.7458778516
      261.2407098900         4.2987674426
       85.3546413510         5.8797663284
       31.0350352450         6.3163983216
s   2 1.0 
       12.2608607280         2.9812147522
        4.9987076005         0.9419559635
s   1 1.0 
        1.1703108158         0.8019291610
s   1 1.0 
        0.4647474099         0.4011648062
s   1 1.0 
        0.1850453636         0.2010799406
p   4 1.0 
       63.2749548010         3.0572017144
       14.6270493790         3.3844839414
        4.4501223456         2.9474262132
        1.5275799647         1.7118271494
p   1 1.0 
        0.5293511794         0.6436057926
p   1 1.0 
        0.1747842127         0.1610897254
d   1 1.0 
        2.3140000000        12.3767310624
d   1 1.0 
        0.6450000000         1.3234257612
f   1 1.0 
        1.4280000000        12.7097950062

  2 0
s   6 1.0 
    27032.3826310000         0.8598581479
     4052.3871392000         1.6055305368
      922.3272271000         2.7458778516
      261.2407098900         4.2987674426
       85.3546413510         5.8797663284
       31.0350352450         6.3163983216
s   2 1.0 
       12.2608607280         2.9812147522
        4.9987076005         0.9419559635
s   1 1.0 
        1.1703108158         0.8019291610
s   1 1.0 
        0.4647474099         0.4011648062
s   1 1.0 
        0.1850453636         0.2010799406
p   4 1.0 
       63.2749548010         3.0572017144
       14.6270493790         3.3844839414
        4.4501223456         2.9474262132
        1.5275799647         1.7118271494
p   1 1.0 
        0.5293511794         0.6436057926
p   1 1.0 
        0.1747842127         0.1610897254
d   1 1.0 
        2.3140000000        12.3767310624
d   1 1.0 
        0.6450000000         1.3234257612
f   1 1.0 
        1.4280000000        12.7097950062

[5D]
[7F]
[9G]
[MO]
 Sym=     1a
 Ene= -2.07447558254137E+01
 Spin= Alpha
 Occup= 1.000000
  1      -0.307703928391
  2      -0.454006726946
  3      -0.016580424903
  4       0.004942717837
  5      -0.001354048516
  6       0.000000000000
  7      -0.000000000000
  8       0.001759376168
  9      -0.000000000000
 10      -0.000000000000
 11      -0.000756930392
 12       0.000000000000
 13       0.000000000000
 14       0.000319990119
 15       0.000210585730
 16      -0.000000000000
 17      -0.000000000000
 18      -0.000000000000
 19       0.000000000000
 20       0.000350284491
 21       0.000000000000
 22      -0.000000000000
 23      -0.000000000000
 24      -0.000000000000
 25      -0.000174794084
 26      -0.000000000000
 27       0.000000000000
 28       0.000000000000
 29      -0.000000000000
 30      -0.000000000000
 31      -0.000000000000
 32      -0.307703928391
 33      -0.454006726946
 34      -0.016580424903
 35       0.004942717837
 36      -0.001354048516
 37      -0.000000000000
 38      -0.000000000000
 39      -0.001759376168
 40       0.000000000000
 41      -0.000000000000
 42       0.000756930392
 43      -0.000000000000
 44      -0.000000000000
 45      -0.000319990119
 46       0.000210585730
 47       0.000000000000
 48       0.000000000000
 49      -0.000000000000
 50       0.000000000000
 51       0.000350284491
 52       0.000000000000
 53      -0.000000000000
 54      -0.000000000000
 55       0.000000000000
 56       0.000174794084
 57       0.000000000000
 58       0.000000000000
 59       0.000000000000
 60      -0.000000000000
 61      -0.000000000000
 62       0.000000000000
 Sym=     1a
 Ene= -2.07439192424142E+01
 Spin= Alpha
 Occup= 1.000000
  1       0.307760199102
  2       0.453996639742
  3       0.018142274794
  4      -0.012197954393
  5       0.005289090661
  6      -0.000000000000
  7      -0.000000000000
  8      -0.001551917448
  9      -0.000000000000
 10      -0.000000000000
 11       0.005620201360
 12       0.000000000000
 13       0.000000000000
 14      -0.001721175709
 15      -0.000310692337
 16      -0.000000000000
 17      -0.000000000000
 18       0.000000000000
 19       0.000000000000
 20      -0.002016060006
 21       0.000000000000
 22      -0.000000000000
 23      -0.000000000000
 24      -0.000000000000
 25       0.000134578104
 26       0.000000000000
 27       0.000000000000
 28       0.000000000000
 29      -0.000000000000
 30      -0.000000000000
 31       0.000000000000
 32      -0.307760199102
 33      -0.453996639742
 34      -0.018142274794
 35       0.012197954393
 36      -0.005289090661
 37      -0.000000000000
 38      -0.000000000000
 39      -0.001551917448
 40       0.000000000000
 41       0.000000000000
 42       0.005620201360
 43      -0.000000000000
 44      -0.000000000000
 45      -0.001721175709
 46       0.000310692337
 47      -0.000000000000
 48       0.000000000000
 49      -0.000000000000
 50      -0.000000000000
 51       0.002016060006
 52       0.000000000000
 53      -0.000000000000
 54       0.000000000000
 55       0.000000000000
 56       0.000134578104
 57       0.000000000000
 58       0.000000000000
 59       0.000000000000
 60       0.000000000000
 61       0.000000000000
 62      -0.000000000000
 Sym=     1a
 Ene= -1.75833739348281E+00
 Spin= Alpha
 Occup= 1.000000
  1      -0.072518457281
  2      -0.175816107285
  3       0.259895475751
  4       0.317336711792
  5       0.055759809591
  6       0.000000000000
  7      -0.000000000000
  8      -0.113070637883
  9      -0.000000000000
 10      -0.000000000000
 11      -0.079210491443
 12       0.000000000000
 13       0.000000000000
 14      -0.000934292273
 15       0.008465390624
 16      -0.000000000000
 17      -0.000000000000
 18       0.000000000000
 19       0.000000000000
 20       0.015893380793
 21      -0.000000000000
 22      -0.000000000000
 23       0.000000000000
 24      -0.000000000000
 25      -0.007973052577
 26       0.000000000000
 27       0.000000000000
 28       0.000000000000
 29       0.000000000000
 30      -0.000000000000
 31      -0.000000000000
 32      -0.072518457281
 33      -0.175816107285
 34       0.259895475751
 35       0.317336711792
 36       0.055759809591
 37       0.000000000000
 38       0.000000000000
 39       0.113070637883
 40       0.000000000000
 41      -0.000000000000
 42       0.079210491443
 43      -0.000000000000
 44      -0.000000000000
 45       0.000934292273
 46       0.008465390624
 47       0.000000000000
 48       0.000000000000
 49      -0.000000000000
 50      -0.000000000000
 51       0.015893380793
 52       0.000000000000
 53      -0.000000000000
 54       0.000000000000
 55       0.000000000000
 56       0.007973052577
 57      -0.000000000000
 58       0.000000000000
 59      -0.000000000000
 60      -0.000000000000
 61      -0.000000000000
 62       0.000000000000
 Sym=     1a
 Ene= -1.18750442221656E+00
 Spin= Alpha
 Occup= 1.000000
  1      -0.075777453931
  2      -0.185643841819
  3       0.283309374517
  4       0.407926729205
  5       0.204581325593
  6       0.000000000000
  7       0.000000000000
  8       0.107145384791
  9       0.000000000000
 10       0.000000000000
 11       0.072610139107
 12      -0.000000000000
 13      -0.000000000000
 14       0.002614025112
 15      -0.008700062714
 16       0.000000000000
 17       0.000000000000
 18       0.000000000000
 19      -0.000000000000
 20      -0.013948784680
 21      -0.000000000000
 22       0.000000000000
 23       0.000000000000
 24      -0.000000000000
 25      -0.001135499961
 26      -0.000000000000
 27      -0.000000000000
 28      -0.000000000000
 29       0.000000000000
 30       0.000000000000
 31       0.000000000000
 32       0.075777453931
 33       0.185643841819
 34      -0.283309374517
 35      -0.407926729205
 36      -0.204581325593
 37       0.000000000000
 38       0.000000000000
 39       0.107145384791
 40      -0.000000000000
 41      -0.000000000000
 42       0.072610139107
 43       0.000000000000
 44       0.000000000000
 45       0.002614025112
 46       0.008700062714
 47       0.000000000000
 48      -0.000000000000
 49       0.000000000000
 50      -0.000000000000
 51       0.013948784680
 52      -0.000000000000
 53       0.000000000000
 54      -0.000000000000
 55       0.000000000000
 56      -0.001135499961
 57      -0.000000000000
 58       0.000000000000
 59      -0.000000000000
 60      -0.000000000000
 61       0.000000000000
 62      -0.000000000000
 Sym=     1a
 Ene= -8.61719622688147E-01
 Spin= Alpha
 Occup= 1.000000
  1       0.000000000000
  2      -0.000000000000
  3      -0.000000000000
  4       0.000000000000
  5      -0.000000000000
  6      -0.352085597501
  7      -0.000000000000
  8      -0.000000000000
  9      -0.299285173527
 10       0.000000000000
 11      -0.000000000000
 12      -0.098502980936
 13      -0.000000000000
 14       0.000000000000
 15       0.000000000000
 16       0.009968283857
 17      -0.000000000000
 18       0.000000000000
 19      -0.000000000000
 20       0.000000000000
 21       0.019070186957
 22       0.000000000000
 23      -0.000000000000
 24       0.000000000000
 25      -0.000000000000
 26      -0.005185600079
 27      -0.000000000000
 28      -0.000000000000
 29      -0.000000000000
 30      -0.000000000067
 31       0.000000000000
 32       0.000000000000
 33      -0.000000000000
 34       0.000000000000
 35      -0.000000000000
 36       0.000000000000
 37      -0.352085597501
 38      -0.000000000000
 39      -0.000000000000
 40      -0.299285173527
 41       0.000000000000
 42      -0.000000000000
 43      -0.098502980936
 44      -0.000000000000
 45       0.000000000000
 46      -0.000000000000
 47      -0.009968283857
 48       0.000000000000
 49      -0.000000000000
 50      -0.000000000000
 51      -0.000000000000
 52      -0.019070186957
 53       0.000000000000
 54       0.000000000000
 55      -0.000000000000
 56      -0.000000000000
 57      -0.005185600079
 58       0.000000000000
 59       0.000000000000
 60      -0.000000000000
 61      -0.000000000067
 62      -0.000000000000
 Sym=     1a
 Ene= -8.61719622688145E-01
 Spin= Alpha
 Occup= 1.000000
  1       0.000000000000
  2      -0.000000000000
  3       0.000000000000
  4      -0.000000000000
  5      -0.000000000000
  6       0.000000000000
  7       0.352085597501
  8      -0.000000000000
  9      -0.000000000000
 10       0.299285173527
 11       0.000000000000
 12      -0.000000000000
 13       0.098502980936
 14      -0.000000000000
 15      -0.000000000000
 16      -0.000000000000
 17      -0.009968283857
 18       0.000000000000
 19      -0.000000000000
 20       0.000000000000
 21       0.000000000000
 22      -0.019070186957
 23       0.000000000000
 24       0.000000000000
 25      -0.000000000000
 26      -0.000000000000
 27       0.005185600079
 28       0.000000000000
 29       0.000000000000
 30      -0.000000000000
 31      -0.000000000067
 32       0.000000000000
 33       0.000000000000
 34      -0.000000000000
 35       0.000000000000
 36       0.000000000000
 37      -0.000000000000
 38       0.352085597501
 39      -0.000000000000
 40       0.000000000000
 41       0.299285173527
 42       0.000000000000
 43       0.000000000000
 44       0.098502980936
 45       0.000000000000
 46      -0.000000000000
 47      -0.000000000000
 48       0.009968283857
 49      -0.000000000000
 50       0.000000000000
 51       0.000000000000
 52       0.000000000000
 53       0.019070186957
 54       0.000000000000
 55      -0.000000000000
 56       0.000000000000
 57       0.000000000000
 58       0.005185600079
 59       0.000000000000
 60       0.000000000000
 61       0.000000000000
 62      -0.000000000067
 Sym=     1a
 Ene= -7.81829105637651E-01
 Spin= Alpha
 Occup= 1.000000
  1      -0.023082440660
  2      -0.057037179889
  3       0.096053780516
  4       0.133496274014
  5       0.153733655653
  6       0.000000000000
  7      -0.000000000000
  8       0.341810837585
  9      -0.000000000000
 10       0.000000000000
 11       0.281876372388
 12       0.000000000000
 13       0.000000000000
 14       0.094507499732
 15      -0.017006347572
 16       0.000000000000
 17      -0.000000000000
 18       0.000000000000
 19       0.000000000000
 20      -0.031733081381
 21       0.000000000000
 22       0.000000000000
 23       0.000000000000
 24       0.000000000000
 25       0.005690228990
 26      -0.000000000000
 27      -0.000000000000
 28      -0.000000000000
 29      -0.000000000000
 30       0.000000000000
 31       0.000000000000
 32      -0.023082440660
 33      -0.057037179889
 34       0.096053780516
 35       0.133496274014
 36       0.153733655653
 37      -0.000000000000
 38      -0.000000000000
 39      -0.341810837585
 40       0.000000000000
 41       0.000000000000
 42      -0.281876372388
 43      -0.000000000000
 44      -0.000000000000
 45      -0.094507499732
 46      -0.017006347572
 47      -0.000000000000
 48       0.000000000000
 49      -0.000000000000
 50       0.000000000000
 51      -0.031733081381
 52       0.000000000000
 53      -0.000000000000
 54       0.000000000000
 55      -0.000000000000
 56      -0.005690228990
 57      -0.000000000000
 58       0.000000000000
 59       0.000000000000
 60      -0.000000000000
 61       0.000000000000
 62      -0.000000000000
 Sym=     1a
 Ene= -5.36380058450021E-01
 Spin= Alpha
 Occup= 1.000000
  1      -0.000000000000
  2       0.000000000000
  3      -0.000000000000
  4       0.000000000000
  5       0.000000000000
  6       0.000000000000
  7       0.399513641885
  8       0.000000000000
  9      -0.000000000000
 10       0.360894199506
 11      -0.000000000000
 12       0.000000000000
 13       0.228836668702
 14       0.000000000000
 15       0.000000000000
 16       0.000000000000
 17       0.003479844795
 18      -0.000000000000
 19       0.000000000000
 20      -0.000000000000
 21       0.000000000000
 22       0.006877488936
 23       0.000000000000
 24      -0.000000000000
 25       0.000000000000
 26      -0.000000000000
 27      -0.003345161418
 28      -0.000000000000
 29       0.000000000000
 30       0.000000000000
 31      -0.000000000068
 32      -0.000000000000
 33      -0.000000000000
 34       0.000000000000
 35      -0.000000000000
 36      -0.000000000000
 37       0.000000000000
 38      -0.399513641885
 39       0.000000000000
 40       0.000000000000
 41      -0.360894199506
 42      -0.000000000000
 43       0.000000000000
 44      -0.228836668702
 45      -0.000000000000
 46       0.000000000000
 47       0.000000000000
 48       0.003479844795
 49       0.000000000000
 50      -0.000000000000
 51      -0.000000000000
 52       0.000000000000
 53       0.006877488936
 54      -0.000000000000
 55       0.000000000000
 56      -0.000000000000
 57       0.000000000000
 58       0.003345161418
 59      -0.000000000000
 60       0.000000000000
 61      -0.000000000000
 62       0.000000000068
 Sym=     1a
 Ene= -5.36380058450021E-01
 Spin= Alpha
 Occup= 1.000000
  1       0.000000000000
  2      -0.000000000000
  3       0.000000000000
  4      -0.000000000000
  5       0.000000000000
  6      -0.399513641885
  7       0.000000000000
  8      -0.000000000000
  9      -0.360894199506
 10      -0.000000000000
 11       0.000000000000
 12      -0.228836668702
 13       0.000000000000
 14      -0.000000000000
 15       0.000000000000
 16      -0.003479844795
 17      -0.000000000000
 18       0.000000000000
 19      -0.000000000000
 20      -0.000000000000
 21      -0.006877488936
 22       0.000000000000
 23       0.000000000000
 24       0.000000000000
 25      -0.000000000000
 26       0.003345161418
 27       0.000000000000
 28      -0.000000000000
 29      -0.000000000000
 30      -0.000000000068
 31      -0.000000000000
 32       0.000000000000
 33      -0.000000000000
 34      -0.000000000000
 35       0.000000000000
 36      -0.000000000000
 37       0.399513641885
 38      -0.000000000000
 39       0.000000000000
 40       0.360894199506
 41       0.000000000000
 42       0.000000000000
 43       0.228836668702
 44      -0.000000000000
 45      -0.000000000000
 46      -0.000000000000
 47      -0.003479844795
 48       0.000000000000
 49       0.000000000000
 50      -0.000000000000
 51       0.000000000000
 52      -0.006877488936
 53      -0.000000000000
 54      -0.000000000000
 55       0.000000000000
 56      -0.000000000000
 57      -0.003345161418
 58      -0.000000000000
 59       0.000000000000
 60       0.000000000000
 61       0.000000000068
 62       0.000000000000
 Sym=     1a
 Ene= 3.60520195222440E-01
 Spin= Alpha
 Occup= 0.000000
  1      -0.034823606900
  2      -0.086092683329
  3       0.113239306645
  4       0.308792908678
  5       2.832242900550
  6      -0.000000000000
  7       0.000000000000
  8      -0.137400213855
  9       0.000000000000
 10      -0.000000000000
 11      -0.147206723666
 12      -0.000000000000
 13      -0.000000000000
 14      -2.061404502296
 15      -0.019483588429
 16       0.000000000000
 17       0.000000000000
 18      -0.000000000000
 19      -0.000000000000
 20       0.055274941851
 21      -0.000000000000
 22      -0.000000000000
 23       0.000000000000
 24       0.000000000000
 25      -0.002773985500
 26       0.000000000000
 27      -0.000000000000
 28       0.000000000000
 29      -0.000000000000
 30       0.000000000000
 31      -0.000000000000
 32       0.034823606900
 33       0.086092683329
 34      -0.113239306645
 35      -0.308792908678
 36      -2.832242900550
 37       0.000000000000
 38       0.000000000000
 39      -0.137400213855
 40      -0.000000000000
 41      -0.000000000000
 42      -0.147206723666
 43       0.000000000000
 44       0.000000000000
 45      -2.061404502296
 46       0.019483588429
 47       0.000000000000
 48      -0.000000000000
 49       0.000000000000
 50       0.000000000000
 51      -0.055274941851
 52      -0.000000000000
 53       0.000000000000
 54       0.000000000000
 55      -0.000000000000
 56      -0.002773985500
 57      -0.000000000000
 58      -0.000000000000
 59      -0.000000000000
 60      -0.000000000000
 61      -0.000000000000
 62       0.000000000000
 Sym=     1a
 Ene= 4.73279891756511E-01
 Spin= Alpha
 Occup= 0.000000
  1       0.034633989408
  2       0.072193919821
  3       0.077418140719
  4      -1.286629138528
  5       1.266559509672
  6       0.000000000000
  7      -0.000000000000
  8      -0.081102265578
  9       0.000000000000
 10      -0.000000000000
 11      -0.174740294620
 12      -0.000000000000
 13       0.000000000000
 14       0.221758264919
 15      -0.003010855554
 16      -0.000000000000
 17      -0.000000000000
 18       0.000000000000
 19       0.000000000000
 20      -0.000181322072
 21      -0.000000000000
 22      -0.000000000000
 23      -0.000000000000
 24      -0.000000000000
 25      -0.001716169200
 26       0.000000000000
 27       0.000000000000
 28       0.000000000000
 29      -0.000000000000
 30       0.000000000000
 31      -0.000000000000
 32       0.034633989408
 33       0.072193919821
 34       0.077418140719
 35      -1.286629138528
 36       1.266559509672
 37       0.000000000000
 38      -0.000000000000
 39       0.081102265578
 40      -0.000000000000
 41      -0.000000000000
 42       0.174740294620
 43      -0.000000000000
 44      -0.000000000000
 45      -0.221758264919
 46      -0.003010855554
 47      -0.000000000000
 48       0.000000000000
 49      -0.000000000000
 50       0.000000000000
 51      -0.000181322072
 52      -0.000000000000
 53      -0.000000000000
 54       0.000000000000
 55       0.000000000000
 56       0.001716169200
 57       0.000000000000
 58       0.000000000000
 59       0.000000000000
 60       0.000000000000
 61       0.000000000000
 62       0.000000000000
 Sym=     1a
 Ene= 5.10062827848970E-01
 Spin= Alpha
 Occup= 0.000000
  1      -0.000000000000
  2       0.000000000000
  3      -0.000000000000
  4       0.000000000000
  5       0.000000000000
  6       0.000000000000
  7      -0.161828876757
  8       0.000000000000
  9       0.000000000000
 10      -0.460946045175
 11      -0.000000000000
 12       0.000000000000
 13       0.735430595007
 14       0.000000000000
 15       0.000000000000
 16       0.000000000000
 17       0.005448121043
 18      -0.000000000000
 19       0.000000000000
 20       0.000000000000
 21      -0.000000000000
 22       0.028091492804
 23       0.000000000000
 24      -0.000000000000
 25       0.000000000000
 26      -0.000000000000
 27       0.000351759677
 28      -0.000000000000
 29      -0.000000000000
 30      -0.000000000000
 31       0.000000000003
 32      -0.000000000000
 33      -0.000000000000
 34       0.000000000000
 35      -0.000000000000
 36      -0.000000000000
 37       0.000000000000
 38      -0.161828876757
 39       0.000000000000
 40       0.000000000000
 41      -0.460946045175
 42      -0.000000000000
 43       0.000000000000
 44       0.735430595007
 45      -0.000000000000
 46       0.000000000000
 47       0.000000000000
 48      -0.005448121043
 49       0.000000000000
 50       0.000000000000
 51      -0.000000000000
 52      -0.000000000000
 53      -0.028091492804
 54      -0.000000000000
 55       0.000000000000
 56      -0.000000000000
 57       0.000000000000
 58       0.000351759677
 59       0.000000000000
 60      -0.000000000000
 61      -0.000000000000
 62       0.000000000003
 Sym=     1a
 Ene= 5.10062827848971E-01
 Spin= Alpha
 Occup= 0.000000
  1       0.000000000000
  2       0.000000000000
  3      -0.000000000000
  4       0.000000000000
  5      -0.000000000000
  6      -0.161828876757
  7       0.000000000000
  8      -0.000000000000
  9      -0.460946045175
 10      -0.000000000000
 11      -0.000000000000
 12       0.735430595007
 13       0.000000000000
 14       0.000000000000
 15       0.000000000000
 16       0.005448121043
 17       0.000000000000
 18       0.000000000000
 19       0.000000000000
 20       0.000000000000
 21       0.028091492804
 22      -0.000000000000
 23      -0.000000000000
 24       0.000000000000
 25      -0.000000000000
 26       0.000351759677
 27       0.000000000000
 28       0.000000000000
 29       0.000000000000
 30      -0.000000000003
 31      -0.000000000000
 32       0.000000000000
 33      -0.000000000000
 34       0.000000000000
 35      -0.000000000000
 36       0.000000000000
 37      -0.161828876757
 38       0.000000000000
 39       0.000000000000
 40      -0.460946045175
 41      -0.000000000000
 42      -0.000000000000
 43       0.735430595007
 44       0.000000000000
 45       0.000000000000
 46      -0.000000000000
 47      -0.005448121043
 48       0.000000000000
 49       0.000000000000
 50       0.000000000000
 51      -0.000000000000
 52      -0.028091492804
 53      -0.000000000000
 54       0.000000000000
 55       0.000000000000
 56      -0.000000000000
 57       0.000351759677
 58      -0.000000000000
 59       0.000000000000
 60       0.000000000000
 61      -0.000000000003
 62       0.000000000000
 Sym=     1a
 Ene= 5.70960833666762E-01
 Spin= Alpha
 Occup= 0.000000
  1      -0.005913959102
  2      -0.011697106844
  3      -0.040098410051
  4       0.513236125524
  5      -0.115704970352
  6       0.000000000000
  7      -0.000000000000
  8      -0.091004110410
  9       0.000000000000
 10      -0.000000000000
 11      -0.364875406643
 12       0.000000000000
 13       0.000000000000
 14       1.138708597436
 15       0.027997063839
 16       0.000000000000
 17      -0.000000000000
 18       0.000000000000
 19       0.000000000000
 20      -0.022560993788
 21      -0.000000000000
 22      -0.000000000000
 23      -0.000000000000
 24      -0.000000000000
 25       0.003760025243
 26       0.000000000000
 27       0.000000000000
 28       0.000000000000
 29       0.000000000000
 30       0.000000000000
 31       0.000000000000
 32      -0.005913959102
 33      -0.011697106844
 34      -0.040098410051
 35       0.513236125524
 36      -0.115704970352
 37       0.000000000000
 38      -0.000000000000
 39       0.091004110410
 40      -0.000000000000
 41       0.000000000000
 42       0.364875406643
 43       0.000000000000
 44      -0.000000000000
 45      -1.138708597436
 46       0.027997063839
 47       0.000000000000
 48       0.000000000000
 49      -0.000000000000
 50      -0.000000000000
 51      -0.022560993788
 52      -0.000000000000
 53      -0.000000000000
 54       0.000000000000
 55       0.000000000000
 56      -0.003760025243
 57      -0.000000000000
 58      -0.000000000000
 59       0.000000000000
 60       0.000000000000
 61       0.000000000000
 62       0.000000000000
 Sym=     1a
 Ene= 6.21526170290279E-01
 Spin= Alpha
 Occup= 0.000000
  1       0.000000000000
  2      -0.000000000000
  3       0.000000000000
  4      -0.000000000000
  5      -0.000000000000
  6      -0.000000000000
  7       0.167776049489
  8      -0.000000000000
  9       0.000000000000
 10       0.468546068546
 11       0.000000000000
 12      -0.000000000000
 13      -1.482400478363
 14      -0.000000000000
 15      -0.000000000000
 16      -0.000000000000
 17      -0.010451664625
 18       0.000000000000
 19      -0.000000000000
 20       0.000000000000
 21      -0.000000000000
 22       0.029806248708
 23       0.000000000000
 24       0.000000000000
 25      -0.000000000000
 26       0.000000000000
 27      -0.002706635297
 28       0.000000000000
 29       0.000000000000
 30      -0.000000000000
 31      -0.000000000003
 32       0.000000000000
 33       0.000000000000
 34      -0.000000000000
 35      -0.000000000000
 36       0.000000000000
 37       0.000000000000
 38      -0.167776049489
 39      -0.000000000000
 40      -0.000000000000
 41      -0.468546068546
 42      -0.000000000000
 43       0.000000000000
 44       1.482400478363
 45       0.000000000000
 46      -0.000000000000
 47       0.000000000000
 48      -0.010451664625
 49      -0.000000000000
 50       0.000000000000
 51       0.000000000000
 52      -0.000000000000
 53       0.029806248708
 54       0.000000000000
 55      -0.000000000000
 56       0.000000000000
 57      -0.000000000000
 58       0.002706635297
 59       0.000000000000
 60       0.000000000000
 61      -0.000000000000
 62       0.000000000003
 Sym=     1a
 Ene= 6.21526170290292E-01
 Spin= Alpha
 Occup= 0.000000
  1       0.000000000000
  2      -0.000000000000
  3       0.000000000000
  4      -0.000000000000
  5       0.000000000000
  6       0.167776049489
  7       0.000000000000
  8      -0.000000000000
  9       0.468546068546
 10       0.000000000000
 11       0.000000000000
 12      -1.482400478363
 13      -0.000000000000
 14      -0.000000000000
 15      -0.000000000000
 16      -0.010451664625
 17       0.000000000000
 18       0.000000000000
 19      -0.000000000000
 20      -0.000000000000
 21       0.029806248708
 22       0.000000000000
 23      -0.000000000000
 24       0.000000000000
 25       0.000000000000
 26      -0.002706635297
 27      -0.000000000000
 28       0.000000000000
 29       0.000000000000
 30       0.000000000003
 31       0.000000000000
 32       0.000000000000
 33       0.000000000000
 34      -0.000000000000
 35       0.000000000000
 36      -0.000000000000
 37      -0.167776049489
 38      -0.000000000000
 39      -0.000000000000
 40      -0.468546068546
 41      -0.000000000000
 42       0.000000000000
 43       1.482400478363
 44       0.000000000000
 45      -0.000000000000
 46      -0.000000000000
 47      -0.010451664625
 48      -0.000000000000
 49       0.000000000000
 50       0.000000000000
 51       0.000000000000
 52       0.029806248708
 53       0.000000000000
 54       0.000000000000
 55      -0.000000000000
 56       0.000000000000
 57       0.002706635297
 58       0.000000000000
 59       0.000000000000
 60      -0.000000000000
 61      -0.000000000003
 62      -0.000000000000
 Sym=     1a
 Ene= 7.04744259431391E-01
 Spin= Alpha
 Occup= 0.000000
  1       0.015702360789
  2       0.045693138822
  3      -0.155753341891
  4       0.222988231348
  5      -0.391759818493
  6       0.000000000000
  7      -0.000000000000
  8       0.403896292360
  9      -0.000000000000
 10       0.000000000000
 11       0.625855326859
 12       0.000000000000
 13       0.000000000000
 14      -0.421029022114
 15       0.010643087300
 16      -0.000000000000
 17      -0.000000000000
 18      -0.000000000000
 19       0.000000000000
 20       0.116746299680
 21      -0.000000000000
 22      -0.000000000000
 23      -0.000000000000
 24       0.000000000000
 25      -0.006371237822
 26      -0.000000000000
 27       0.000000000000
 28      -0.000000000000
 29      -0.000000000000
 30       0.000000000000
 31       0.000000000000
 32      -0.015702360789
 33      -0.045693138822
 34       0.155753341891
 35      -0.222988231348
 36       0.391759818493
 37       0.000000000000
 38      -0.000000000000
 39       0.403896292360
 40      -0.000000000000
 41       0.000000000000
 42       0.625855326859
 43      -0.000000000000
 44      -0.000000000000
 45      -0.421029022114
 46      -0.010643087300
 47       0.000000000000
 48       0.000000000000
 49      -0.000000000000
 50      -0.000000000000
 51      -0.116746299680
 52       0.000000000000
 53      -0.000000000000
 54      -0.000000000000
 55      -0.000000000000
 56      -0.006371237822
 57       0.000000000000
 58       0.000000000000
 59       0.000000000000
 60       0.000000000000
 61      -0.000000000000
 62      -0.000000000000
 Sym=     1a
 Ene= 9.14352055161440E-01
 Spin= Alpha
 Occup= 0.000000
  1      -0.037712789502
  2      -0.081485332597
  3      -0.051487848504
  4       1.807822565585
  5      -8.698647696683
  6       0.000000000000
  7       0.000000000000